<LesHouchesEvents version="3.0">
<header>
<!--
#*********************************************************************
#                                                                    *
#                        MadGraph5_aMC@NLO                           *
#                                                                    *
#                           Going Beyond                             *
#                                                                    *
#                   http://madgraph.hep.uiuc.edu                     *
#                   http://madgraph.phys.ucl.ac.be                   *
#                   http://amcatnlo.cern.ch                          *
#                                                                    *
#                     The MadGraph5_aMC@NLO team                     *
#                                                                    *
#....................................................................*
#                                                                    *
# This file contains all the information necessary to reproduce      *
# the events generated:                                              *
#                                                                    *
# 1. software version                                                *
# 2. proc_card          : code generation info including model       *
# 3. param_card         : model primary parameters in the LH format  *
# 4. run_card           : running parameters (collider and cuts)     *
# 5. pythia_card        : present only if pythia has been run        *
# 6. pgs_card           : present only if pgs has been run           *
# 7. delphes_cards      : present only if delphes has been run       *
#                                                                    *
#                                                                    *
#*********************************************************************
-->
<MGVersion>
#2.9.16
</MGVersion>
<MG5ProcCard>
<![CDATA[
#************************************************************
#*                     MadGraph5_aMC@NLO                    *
#*                                                          *
#*                *                       *                 *
#*                  *        * *        *                   *
#*                    * * * * 5 * * * *                     *
#*                  *        * *        *                   *
#*                *                       *                 *
#*                                                          *
#*                                                          *
#*         VERSION 2.9.16                2023-07-26         *
#*                                                          *
#*    The MadGraph5_aMC@NLO Development Team - Find us at   *
#*    https://server06.fynu.ucl.ac.be/projects/madgraph     *
#*                                                          *
#************************************************************
#*                                                          *
#*               Command File for MadGraph5_aMC@NLO         *
#*                                                          *
#*     run as ./bin/mg5_aMC  filename                       *
#*                                                          *
#************************************************************
set group_subprocesses Auto
set ignore_six_quark_processes False
set low_mem_multicore_nlo_generation False
set complex_mass_scheme False
set gauge unitary
set loop_optimized_output True
set loop_color_flows False
set max_npoint_for_channel 0
set default_unset_couplings 99
set max_t_for_channel 99
set zerowidth_tchannel True
import model sm
define p = g u c d s u~ c~ d~ s~
define j = g u c d s u~ c~ d~ s~
define l+ = e+ mu+
define l- = e- mu-
define vl = ve vm vt
define vl~ = ve~ vm~ vt~
convert model /home/jonajjsj/Madgraph/MG5_aMC_v2_9_16/models/LWSM
import model LWSM
generate p p > lwe+ lwe-
output JJSJ_test
]]>
</MG5ProcCard>
<MGProcCard>
#*********************************************************************
#                        MadGraph/MadEvent                           *
#                   http://madgraph.hep.uiuc.edu                     *
#                                                                    *
#                          proc_card.dat                             *
#*********************************************************************
#                                                                    *
#            This Files is generated by MADGRAPH 5                   *
#                                                                    *
# WARNING: This Files is generated for MADEVENT (compatibility issue)*
#          This files is NOT a valid MG4 proc_card.dat               *
#          Running this in MG4 will NEVER reproduce the result of MG5*
#                                                                    *
#*********************************************************************
#*********************************************************************
# Process(es) requested : mg2 input                                  *
#*********************************************************************
# Begin PROCESS # This is TAG. Do not modify this line
p p > lwe+ lwe-           #Process
# Be carefull the coupling are here in MG5 convention
          
end_coup           # End the couplings input

done               # this tells MG there are no more procs
# End PROCESS  # This is TAG. Do not modify this line
#*********************************************************************
# Model information                                                  *
#*********************************************************************
# Begin MODEL  # This is TAG. Do not modify this line
LWSM
# End   MODEL  # This is TAG. Do not modify this line
#*********************************************************************
# Start multiparticle definitions                                    *
#*********************************************************************
# Begin MULTIPARTICLES # This is TAG. Do not modify this line

# End  MULTIPARTICLES # This is TAG. Do not modify this line
</MGProcCard>
<MGRunCard>
<![CDATA[
#*********************************************************************
#                       MadGraph5_aMC@NLO                            *
#                                                                    *
#                     run_card.dat MadEvent                          *
#                                                                    *
#  This file is used to set the parameters of the run.               *
#                                                                    *
#  Some notation/conventions:                                        *
#                                                                    *
#   Lines starting with a '# ' are info or comments                  *
#                                                                    *
#   mind the format:   value    = variable     ! comment             *
#                                                                    *
#   To display more options, you can type the command:               *
#      update to_full                                                *
#*********************************************************************
#                                                                    
#*********************************************************************
# Tag name for the run (one word)                                    *
#*********************************************************************
  tag_1     = run_tag ! name of the run 
#*********************************************************************
# Number of events and rnd seed                                      *
# Warning: Do not generate more than 1M events in a single run       *
#*********************************************************************
  1000 = nevents ! Number of unweighted events requested 
 21 = iseed   ! rnd seed (0=assigned automatically=default))
#*********************************************************************
# Collider type and energy                                           *
# lpp: 0=No PDF, 1=proton, -1=antiproton, 2=photon from proton,      *
#                3=photon from electron, 4=photon from muon          *
#*********************************************************************
     1        = lpp1    ! beam 1 type 
     1        = lpp2    ! beam 2 type
     6500.0     = ebeam1  ! beam 1 total energy in GeV
     6500.0     = ebeam2  ! beam 2 total energy in GeV
# To see polarised beam options: type "update beam_pol"

#*********************************************************************
# PDF CHOICE: this automatically fixes also alpha_s and its evol.    *
#*********************************************************************
     nn23lo1    = pdlabel     ! PDF set                                     
     230000    = lhaid     ! if pdlabel=lhapdf, this is the lhapdf number
# To see heavy ion options: type "update ion_pdf"
#*********************************************************************
# Renormalization and factorization scales                           *
#*********************************************************************
 False = fixed_ren_scale  ! if .true. use fixed ren scale
 False        = fixed_fac_scale  ! if .true. use fixed fac scale
 91.188  = scale            ! fixed ren scale
 91.188  = dsqrt_q2fact1    ! fixed fact scale for pdf1
 91.188  = dsqrt_q2fact2    ! fixed fact scale for pdf2
 -1 = dynamical_scale_choice ! Choose one of the preselected dynamical choices
 1.0  = scalefact        ! scale factor for event-by-event scales
#*********************************************************************
# Type and output format
#*********************************************************************
  False     = gridpack  !True = setting up the grid pack
  -1.0 = time_of_flight ! threshold (in mm) below which the invariant livetime is not written (-1 means not written)
  average =  event_norm       ! average/sum. Normalization of the weight in the LHEF
# To see MLM/CKKW  merging options: type "update MLM" or "update CKKW"

#*********************************************************************
#
#*********************************************************************
# Phase-Space Optimization strategy (basic options)
#*********************************************************************
   0  = nhel          ! using helicities importance sampling or not.
                             ! 0: sum over helicity, 1: importance sampling
   2  = sde_strategy  ! default integration strategy (hep-ph/2021.00773)
                             ! 1 is old strategy (using amp square)
			     ! 2 is new strategy (using only the denominator)
# To see advanced option for Phase-Space optimization: type "update psoptim"			     
#*********************************************************************
# Generation bias, check the wiki page below for more information:   *
#  'cp3.irmp.ucl.ac.be/projects/madgraph/wiki/LOEventGenerationBias' *
#*********************************************************************
 None = bias_module  ! Bias type of bias, [None, ptj_bias, -custom_folder-]
 {} = bias_parameters ! Specifies the parameters of the module.
#
#*******************************                                                 
# Parton level cuts definition *
#*******************************                                     
#                                                                    
#
#*********************************************************************
# BW cutoff (M+/-bwcutoff*Gamma) ! Define on/off-shell for "$" and decay  
#*********************************************************************
  15.0  = bwcutoff      ! (M+/-bwcutoff*Gamma)
#*********************************************************************
# Standard Cuts                                                      *
#*********************************************************************
# Minimum and maximum pt's (for max, -1 means no cut)                *
#*********************************************************************
 {} = pt_min_pdg ! pt cut for other particles (use pdg code). Applied on particle and anti-particle
 {}	= pt_max_pdg ! pt cut for other particles (syntax e.g. {6: 100, 25: 50}) 
#
# For display option for energy cut in the partonic center of mass frame type 'update ecut'
#
#*********************************************************************
# Maximum and minimum absolute rapidity (for max, -1 means no cut)   *
#*********************************************************************
 {} = eta_min_pdg ! rap cut for other particles (use pdg code). Applied on particle and anti-particle
 {} = eta_max_pdg ! rap cut for other particles (syntax e.g. {6: 2.5, 23: 5})
#*********************************************************************
# Minimum and maximum DeltaR distance                                *
#*********************************************************************
#*********************************************************************
# Minimum and maximum invariant mass for pairs                       *
#*********************************************************************
 {} = mxx_min_pdg ! min invariant mass of a pair of particles X/X~ (e.g. {6:250})
 {'default': False} = mxx_only_part_antipart ! if True the invariant mass is applied only 
                       ! to pairs of particle/antiparticle and not to pairs of the same pdg codes.  
#*********************************************************************
# Inclusive cuts                                                     *
#*********************************************************************
 0.0  = ptheavy   ! minimum pt for at least one heavy final state
#*********************************************************************
# maximal pdg code for quark to be considered as a light jet         *
# (otherwise b cuts are applied)                                     *
#*********************************************************************
 4 = maxjetflavor    ! Maximum jet pdg code
#*********************************************************************
#
#*********************************************************************
# Store info for systematics studies                                 *
# WARNING: Do not use for interference type of computation           *
#*********************************************************************
   True  = use_syst      ! Enable systematics studies
#
systematics = systematics_program ! none, systematics [python], SysCalc [depreceted, C++]
['--mur=0.5,1,2', '--muf=0.5,1,2', '--pdf=errorset'] = systematics_arguments ! see: https://cp3.irmp.ucl.ac.be/projects/madgraph/wiki/Systematics#Systematicspythonmodule
# Syscalc is deprecated but to see the associate options type'update syscalc'
]]>
</MGRunCard>
<slha>
######################################################################
## PARAM_CARD AUTOMATICALY GENERATED BY MG5                       ####
######################################################################
###################################
## INFORMATION FOR MASS
###################################
BLOCK MASS # 
      5 4.700000e+00 # mb
      6 1.720000e+02 # mt
      15 1.777000e+00 # mta
      23 9.118760e+01 # mz
      25 1.250000e+02 # mh
      556 2.000000e+02 # mlwe
      1 0.000000e+00 # d : 0.0
      2 0.000000e+00 # u : 0.0
      3 0.000000e+00 # s : 0.0
      4 0.000000e+00 # c : 0.0
      11 0.000000e+00 # e- : 0.0
      12 0.000000e+00 # ve : 0.0
      13 0.000000e+00 # mu- : 0.0
      14 0.000000e+00 # vm : 0.0
      16 0.000000e+00 # vt : 0.0
      21 0.000000e+00 # g : 0.0
      22 0.000000e+00 # a : 0.0
      24 7.982436e+01 # w+ : cmath.sqrt(mz__exp__2/2. + cmath.sqrt(mz__exp__4/4. - (aew*cmath.pi*mz__exp__2)/(gf*sqrt__2)))
###################################
## INFORMATION FOR SMINPUTS
###################################
BLOCK SMINPUTS # 
      1 1.279000e+02 # aewm1
      2 1.166370e-05 # gf
      3 1.184000e-01 # as (note that parameter not used if you use a pdf set)
###################################
## INFORMATION FOR YUKAWA
###################################
BLOCK YUKAWA # 
      5 4.700000e+00 # ymb
      6 1.720000e+02 # ymt
      15 1.777000e+00 # ymtau
###################################
## INFORMATION FOR DECAY
###################################
BLOCK QNUMBERS 556 #  lwe-
      1 -3 # 3 times electric charge
      2 2 # number of spin states (2s+1)
      3 1 # colour rep (1: singlet, 3: triplet, 8: octet)
      4 1 # particle/antiparticle distinction (0=own anti)
#
#*************************
#      Decay widths      *
#*************************
#
#      PDG        Width
DECAY  1   0.000000e+00
#
#      PDG        Width
DECAY  2   0.000000e+00
#
#      PDG        Width
DECAY  3   0.000000e+00
#
#      PDG        Width
DECAY  4   0.000000e+00
#
#      PDG        Width
DECAY  5   0.000000e+00
#
#      PDG        Width
DECAY  6   1.508336e+00
#
#      PDG        Width
DECAY  11   0.000000e+00
#
#      PDG        Width
DECAY  12   0.000000e+00
#
#      PDG        Width
DECAY  13   0.000000e+00
#
#      PDG        Width
DECAY  14   0.000000e+00
#
#      PDG        Width
DECAY  15   0.000000e+00
#
#      PDG        Width
DECAY  16   0.000000e+00
#
#      PDG        Width
DECAY  21   0.000000e+00
#
#      PDG        Width
DECAY  22   0.000000e+00
#
#      PDG        Width
DECAY  23   2.495200e+00
#
#      PDG        Width
DECAY  24   2.085000e+00
#
#      PDG        Width
DECAY  25   4.070000e-03
#
#      PDG        Width
DECAY  556   7.287748e-12
#  BR             NDA  ID1    ID2   ...
   1.000000e+00   2    23  11 # 7.287748021956571e-12
</slha>
<MGGenerationInfo>
#  Number of Events        :       1000
#  Integrated weight (pb)  :       0.015204
</MGGenerationInfo>
</header>
<init>
2212 2212 6.500000e+03 6.500000e+03 0 0 247000 247000 -4 1
1.520400e-02 5.247800e-05 1.520400e-02 1
<generator name='MadGraph5_aMC@NLO' version='2.9.16'>please cite 1405.0301 </generator>
</init>
<event>
 4      1 +1.5204000e-02 4.58189100e+02 7.81860800e-03 1.02530800e-01
       -2 -1    0    0    0  501 -0.0000000000e+00 +0.0000000000e+00 +1.1616330797e+02 1.1616330797e+02 0.0000000000e+00 0.0000e+00 1.0000e+00
        2 -1    0    0  501    0 +0.0000000000e+00 -0.0000000000e+00 -4.5181487586e+02 4.5181487586e+02 0.0000000000e+00 0.0000e+00 -1.0000e+00
     -556  1    1    2    0    0 -3.3858853917e+01 -8.8415115461e+01 -2.4137849812e+02 3.2745569775e+02 2.0000000000e+02 0.0000e+00 -1.0000e+00
      556  1    1    2    0    0 +3.3858853917e+01 +8.8415115461e+01 -9.4273069763e+01 2.4052248609e+02 2.0000000000e+02 0.0000e+00 1.0000e+00
<mgrwt>
<rscale>  0 0.45818909E+03</rscale>
<asrwt>0</asrwt>
<pdfrwt beam="2">  1        2 0.69509980E-01 0.45818909E+03</pdfrwt>
<pdfrwt beam="1">  1       -2 0.17871278E-01 0.45818909E+03</pdfrwt>
<totfact> 0.17892178E+03</totfact>
</mgrwt>
</event>
<event>
 4      1 +1.5204000e-02 7.54795700e+02 7.81860800e-03 9.62785700e-02
        1 -1    0    0  501    0 +0.0000000000e+00 +0.0000000000e+00 +2.7530456375e+02 2.7530456375e+02 0.0000000000e+00 0.0000e+00 -1.0000e+00
       -1 -1    0    0    0  501 -0.0000000000e+00 -0.0000000000e+00 -5.1735112433e+02 5.1735112433e+02 0.0000000000e+00 0.0000e+00 1.0000e+00
     -556  1    1    2    0    0 +1.1278009948e+02 +7.4159282132e+01 +1.8372233615e+02 3.0327025368e+02 2.0000000000e+02 0.0000e+00 -1.0000e+00
      556  1    1    2    0    0 -1.1278009948e+02 -7.4159282132e+01 -4.2576889674e+02 4.8938543439e+02 2.0000000000e+02 0.0000e+00 1.0000e+00
<mgrwt>
<rscale>  0 0.75479567E+03</rscale>
<asrwt>0</asrwt>
<pdfrwt beam="1">  1        1 0.42354549E-01 0.75479567E+03</pdfrwt>
<pdfrwt beam="2">  1       -1 0.79592480E-01 0.75479567E+03</pdfrwt>
<totfact> 0.15680645E+02</totfact>
</mgrwt>
</event>
<event>
 4      1 +1.5204000e-02 5.55177800e+02 7.81860800e-03 1.00030300e-01
       -1 -1    0    0    0  501 -0.0000000000e+00 +0.0000000000e+00 +3.4882233554e+01 3.4882233554e+01 0.0000000000e+00 0.0000e+00 1.0000e+00
        1 -1    0    0  501    0 +0.0000000000e+00 -0.0000000000e+00 -2.2090209325e+03 2.2090209325e+03 0.0000000000e+00 0.0000e+00 -1.0000e+00
     -556  1    1    2    0    0 -1.6485154759e+01 +8.9222728476e+00 -1.8614063967e+03 1.8722139677e+03 2.0000000000e+02 0.0000e+00 -1.0000e+00
      556  1    1    2    0    0 +1.6485154759e+01 -8.9222728476e+00 -3.1273230221e+02 3.7168919829e+02 2.0000000000e+02 0.0000e+00 1.0000e+00
<mgrwt>
<rscale>  0 0.55517775E+03</rscale>
<asrwt>0</asrwt>
<pdfrwt beam="2">  1        1 0.33984934E+00 0.55517775E+03</pdfrwt>
<pdfrwt beam="1">  1       -1 0.53664980E-02 0.55517775E+03</pdfrwt>
<totfact> 0.37624002E+02</totfact>
</mgrwt>
</event>
<event>
 4      1 +1.5204000e-02 4.21141800e+02 7.81860800e-03 1.03669500e-01
        1 -1    0    0  501    0 +0.0000000000e+00 +0.0000000000e+00 +5.8633461967e+02 5.8633461967e+02 0.0000000000e+00 0.0000e+00 1.0000e+00
       -1 -1    0    0    0  501 -0.0000000000e+00 -0.0000000000e+00 -7.5622532596e+01 7.5622532596e+01 0.0000000000e+00 0.0000e+00 -1.0000e+00
     -556  1    1    2    0    0 -3.3592881047e+01 +5.1946038275e+01 +2.9096507857e+02 3.5845159993e+02 2.0000000000e+02 0.0000e+00 1.0000e+00
      556  1    1    2    0    0 +3.3592881047e+01 -5.1946038275e+01 +2.1974700851e+02 3.0350555234e+02 2.0000000000e+02 0.0000e+00 -1.0000e+00
<mgrwt>
<rscale>  0 0.42114182E+03</rscale>
<asrwt>0</asrwt>
<pdfrwt beam="1">  1        1 0.90205323E-01 0.42114182E+03</pdfrwt>
<pdfrwt beam="2">  1       -1 0.11634236E-01 0.42114182E+03</pdfrwt>
<totfact> 0.17530410E+03</totfact>
</mgrwt>
</event>
<event>
 4      1 +1.5204000e-02 7.98383100e+02 7.81860800e-03 9.56236100e-02
        1 -1    0    0  501    0 +0.0000000000e+00 +0.0000000000e+00 +6.9320426688e+02 6.9320426688e+02 0.0000000000e+00 0.0000e+00 -1.0000e+00
       -1 -1    0    0    0  501 -0.0000000000e+00 -0.0000000000e+00 -2.2988011911e+02 2.2988011911e+02 0.0000000000e+00 0.0000e+00 1.0000e+00
     -556  1    1    2    0    0 +2.1598183539e+02 -2.5834350549e+02 +3.2095395888e+02 5.0636050771e+02 2.0000000000e+02 0.0000e+00 -1.0000e+00
      556  1    1    2    0    0 -2.1598183539e+02 +2.5834350549e+02 +1.4237018889e+02 4.1672387828e+02 2.0000000000e+02 0.0000e+00 1.0000e+00
<mgrwt>
<rscale>  0 0.79838306E+03</rscale>
<asrwt>0</asrwt>
<pdfrwt beam="1">  1        1 0.10664681E+00 0.79838306E+03</pdfrwt>
<pdfrwt beam="2">  1       -1 0.35366173E-01 0.79838306E+03</pdfrwt>
<totfact> 0.21273783E+02</totfact>
</mgrwt>
</event>
<event>
 4      1 +1.5204000e-02 4.89973400e+02 7.81860800e-03 1.01643000e-01
        2 -1    0    0  501    0 +0.0000000000e+00 +0.0000000000e+00 +4.6966471016e+02 4.6966471016e+02 0.0000000000e+00 0.0000e+00 -1.0000e+00
       -2 -1    0    0    0  501 -0.0000000000e+00 -0.0000000000e+00 -1.2779005043e+02 1.2779005043e+02 0.0000000000e+00 0.0000e+00 1.0000e+00
     -556  1    1    2    0    0 -7.7693754935e+01 +4.2077384407e+01 +3.6190132869e+01 2.2162254297e+02 2.0000000000e+02 0.0000e+00 1.0000e+00
      556  1    1    2    0    0 +7.7693754935e+01 -4.2077384407e+01 +3.0568452687e+02 3.7583221762e+02 2.0000000000e+02 0.0000e+00 -1.0000e+00
<mgrwt>
<rscale>  0 0.48997337E+03</rscale>
<asrwt>0</asrwt>
<pdfrwt beam="1">  1        2 0.72256108E-01 0.48997337E+03</pdfrwt>
<pdfrwt beam="2">  1       -2 0.19660008E-01 0.48997337E+03</pdfrwt>
<totfact> 0.14540583E+03</totfact>
</mgrwt>
</event>
<event>
 4      1 +1.5204000e-02 7.04813000e+02 7.81860800e-03 9.70903600e-02
        2 -1    0    0  501    0 +0.0000000000e+00 +0.0000000000e+00 +9.7232292540e+01 9.7232292540e+01 0.0000000000e+00 0.0000e+00 -1.0000e+00
       -2 -1    0    0    0  501 -0.0000000000e+00 -0.0000000000e+00 -1.2772542419e+03 1.2772542419e+03 0.0000000000e+00 0.0000e+00 1.0000e+00
     -556  1    1    2    0    0 +2.2202615510e+02 +1.1274141390e+02 -2.9955010132e+02 4.3787726951e+02 2.0000000000e+02 0.0000e+00 -1.0000e+00
      556  1    1    2    0    0 -2.2202615510e+02 -1.1274141390e+02 -8.8047184807e+02 9.3660926496e+02 2.0000000000e+02 0.0000e+00 1.0000e+00
<mgrwt>
<rscale>  0 0.70481305E+03</rscale>
<asrwt>0</asrwt>
<pdfrwt beam="1">  1        2 0.14958814E-01 0.70481305E+03</pdfrwt>
<pdfrwt beam="2">  1       -2 0.19650066E+00 0.70481305E+03</pdfrwt>
<totfact> 0.57529385E+01</totfact>
</mgrwt>
</event>
<event>
 4      1 +1.5204000e-02 5.01482700e+02 7.81860800e-03 1.01339300e-01
       -2 -1    0    0    0  501 -0.0000000000e+00 +0.0000000000e+00 +8.2774075717e+01 8.2774075717e+01 0.0000000000e+00 0.0000e+00 -1.0000e+00
        2 -1    0    0  501    0 +0.0000000000e+00 -0.0000000000e+00 -7.5955200359e+02 7.5955200359e+02 0.0000000000e+00 0.0000e+00 1.0000e+00
     -556  1    1    2    0    0 -6.3107903635e+01 -8.1863157749e+01 -1.5296183165e+02 2.7217918003e+02 2.0000000000e+02 0.0000e+00 -1.0000e+00
      556  1    1    2    0    0 +6.3107903635e+01 +8.1863157749e+01 -5.2381609622e+02 5.7014689928e+02 2.0000000000e+02 0.0000e+00 1.0000e+00
<mgrwt>
<rscale>  0 0.50148266E+03</rscale>
<asrwt>0</asrwt>
<pdfrwt beam="2">  1        2 0.11685415E+00 0.50148266E+03</pdfrwt>
<pdfrwt beam="1">  1       -2 0.12734473E-01 0.50148266E+03</pdfrwt>
<totfact> 0.17042411E+03</totfact>
</mgrwt>
</event>
<event>
 4      1 +1.5204000e-02 5.32298400e+02 7.81860800e-03 1.00567600e-01
        1 -1    0    0  501    0 +0.0000000000e+00 +0.0000000000e+00 +4.8847713284e+02 4.8847713284e+02 0.0000000000e+00 0.0000e+00 -1.0000e+00
       -1 -1    0    0    0  501 -0.0000000000e+00 -0.0000000000e+00 -1.4501270149e+02 1.4501270149e+02 0.0000000000e+00 0.0000e+00 1.0000e+00
     -556  1    1    2    0    0 -2.8056922685e+00 -1.6834268340e+02 +1.1236698070e+02 2.8455837594e+02 2.0000000000e+02 0.0000e+00 1.0000e+00
      556  1    1    2    0    0 +2.8056922685e+00 +1.6834268340e+02 +2.3109745065e+02 3.4893145840e+02 2.0000000000e+02 0.0000e+00 -1.0000e+00
<mgrwt>
<rscale>  0 0.53229837E+03</rscale>
<asrwt>0</asrwt>
<pdfrwt beam="1">  1        1 0.75150327E-01 0.53229837E+03</pdfrwt>
<pdfrwt beam="2">  1       -1 0.22309647E-01 0.53229837E+03</pdfrwt>
<totfact> 0.78363647E+02</totfact>
</mgrwt>
</event>
<event>
 4      1 +1.5204000e-02 6.22362000e+02 7.81860800e-03 9.86006800e-02
       -2 -1    0    0    0  501 -0.0000000000e+00 +0.0000000000e+00 +7.0026601839e+02 7.0026601839e+02 0.0000000000e+00 0.0000e+00 1.0000e+00
        2 -1    0    0  501    0 +0.0000000000e+00 -0.0000000000e+00 -1.3828120201e+02 1.3828120201e+02 0.0000000000e+00 0.0000e+00 -1.0000e+00
     -556  1    1    2    0    0 +1.2813221753e+02 +1.9505011072e+02 +2.1538241730e+02 3.7530254001e+02 2.0000000000e+02 0.0000e+00 1.0000e+00
      556  1    1    2    0    0 -1.2813221753e+02 -1.9505011072e+02 +3.4660239908e+02 4.6324468039e+02 2.0000000000e+02 0.0000e+00 -1.0000e+00
<mgrwt>
<rscale>  0 0.62236204E+03</rscale>
<asrwt>0</asrwt>
<pdfrwt beam="2">  1        2 0.21274032E-01 0.62236204E+03</pdfrwt>
<pdfrwt beam="1">  1       -2 0.10773323E+00 0.62236204E+03</pdfrwt>
<totfact> 0.18486409E+02</totfact>
</mgrwt>
</event>
<event>
 4      1 +1.5204000e-02 7.12429400e+02 7.81860800e-03 9.69620900e-02
        2 -1    0    0  501    0 +0.0000000000e+00 +0.0000000000e+00 +1.6610487048e+03 1.6610487048e+03 0.0000000000e+00 0.0000e+00 1.0000e+00
       -2 -1    0    0    0  501 -0.0000000000e+00 -0.0000000000e+00 -7.6390839009e+01 7.6390839009e+01 0.0000000000e+00 0.0000e+00 -1.0000e+00
     -556  1    1    2    0    0 -1.9994858411e+02 +2.1646645302e+02 +7.7478640783e+02 8.5271984810e+02 2.0000000000e+02 0.0000e+00 1.0000e+00
      556  1    1    2    0    0 +1.9994858411e+02 -2.1646645302e+02 +8.0987145796e+02 8.8471969572e+02 2.0000000000e+02 0.0000e+00 -1.0000e+00
<mgrwt>
<rscale>  0 0.71242938E+03</rscale>
<asrwt>0</asrwt>
<pdfrwt beam="1">  1        2 0.25554593E+00 0.71242938E+03</pdfrwt>
<pdfrwt beam="2">  1       -2 0.11752438E-01 0.71242938E+03</pdfrwt>
<totfact> 0.55274320E+02</totfact>
</mgrwt>
</event>
<event>
 4      1 +1.5204000e-02 5.38585400e+02 7.81860800e-03 1.00417100e-01
        2 -1    0    0  501    0 +0.0000000000e+00 +0.0000000000e+00 +7.1042236455e+01 7.1042236455e+01 0.0000000000e+00 0.0000e+00 -1.0000e+00
       -2 -1    0    0    0  501 -0.0000000000e+00 -0.0000000000e+00 -1.0207809283e+03 1.0207809283e+03 0.0000000000e+00 0.0000e+00 1.0000e+00
     -556  1    1    2    0    0 +1.3393131140e+02 +1.1893099517e+02 -4.3252150411e+02 5.0907467949e+02 2.0000000000e+02 0.0000e+00 1.0000e+00
      556  1    1    2    0    0 -1.3393131140e+02 -1.1893099517e+02 -5.1721718778e+02 5.8274848530e+02 2.0000000000e+02 0.0000e+00 -1.0000e+00
<mgrwt>
<rscale>  0 0.53858541E+03</rscale>
<asrwt>0</asrwt>
<pdfrwt beam="1">  1        2 0.10929576E-01 0.53858541E+03</pdfrwt>
<pdfrwt beam="2">  1       -2 0.15704321E+00 0.53858541E+03</pdfrwt>
<totfact> 0.16030627E+02</totfact>
</mgrwt>
</event>
<event>
 4      1 +1.5204000e-02 5.01010400e+02 7.81860800e-03 1.01351600e-01
       -1 -1    0    0    0  501 -0.0000000000e+00 +0.0000000000e+00 +6.8216714834e+01 6.8216714834e+01 0.0000000000e+00 0.0000e+00 1.0000e+00
        1 -1    0    0  501    0 +0.0000000000e+00 -0.0000000000e+00 -9.1990456877e+02 9.1990456877e+02 0.0000000000e+00 0.0000e+00 -1.0000e+00
     -556  1    1    2    0    0 -1.1249086798e+02 -3.3657403356e+01 -6.1259333750e+02 6.5502489520e+02 2.0000000000e+02 0.0000e+00 -1.0000e+00
      556  1    1    2    0    0 +1.1249086798e+02 +3.3657403356e+01 -2.3909451644e+02 3.3309638841e+02 2.0000000000e+02 0.0000e+00 1.0000e+00
<mgrwt>
<rscale>  0 0.50101045E+03</rscale>
<asrwt>0</asrwt>
<pdfrwt beam="2">  1        1 0.14152378E+00 0.50101045E+03</pdfrwt>
<pdfrwt beam="1">  1       -1 0.10494879E-01 0.50101045E+03</pdfrwt>
<totfact> 0.10367548E+03</totfact>
</mgrwt>
</event>
<event>
 4      1 +1.5204000e-02 4.75440100e+02 7.81860800e-03 1.02039600e-01
        2 -1    0    0  501    0 +0.0000000000e+00 +0.0000000000e+00 +2.7513298167e+03 2.7513298167e+03 0.0000000000e+00 0.0000e+00 -1.0000e+00
       -2 -1    0    0    0  501 -0.0000000000e+00 -0.0000000000e+00 -2.0539461427e+01 2.0539461427e+01 0.0000000000e+00 0.0000e+00 1.0000e+00
     -556  1    1    2    0    0 +9.5859208581e+01 +3.6778053438e+01 +1.8158338533e+03 1.8296978428e+03 2.0000000000e+02 0.0000e+00 -1.0000e+00
      556  1    1    2    0    0 -9.5859208581e+01 -3.6778053438e+01 +9.1495650202e+02 9.4217143539e+02 2.0000000000e+02 0.0000e+00 1.0000e+00
<mgrwt>
<rscale>  0 0.47544014E+03</rscale>
<asrwt>0</asrwt>
<pdfrwt beam="1">  1        2 0.42328122E+00 0.47544014E+03</pdfrwt>
<pdfrwt beam="2">  1       -2 0.31599193E-02 0.47544014E+03</pdfrwt>
<totfact> 0.11091477E+03</totfact>
</mgrwt>
</event>
<event>
 4      1 +1.5204000e-02 6.81741900e+02 7.81860800e-03 9.74897600e-02
        2 -1    0    0  501    0 +0.0000000000e+00 +0.0000000000e+00 +6.0213494229e+02 6.0213494229e+02 0.0000000000e+00 0.0000e+00 -1.0000e+00
       -2 -1    0    0    0  501 -0.0000000000e+00 -0.0000000000e+00 -1.9296840843e+02 1.9296840843e+02 0.0000000000e+00 0.0000e+00 1.0000e+00
     -556  1    1    2    0    0 +2.6465636123e+02 +7.3110803263e+01 +2.3767038835e+02 4.1457857227e+02 2.0000000000e+02 0.0000e+00 -1.0000e+00
      556  1    1    2    0    0 -2.6465636123e+02 -7.3110803263e+01 +1.7149614551e+02 3.8052477845e+02 2.0000000000e+02 0.0000e+00 1.0000e+00
<mgrwt>
<rscale>  0 0.68174195E+03</rscale>
<asrwt>0</asrwt>
<pdfrwt beam="1">  1        2 0.92636144E-01 0.68174195E+03</pdfrwt>
<pdfrwt beam="2">  1       -2 0.29687448E-01 0.68174195E+03</pdfrwt>
<totfact> 0.51948852E+02</totfact>
</mgrwt>
</event>
<event>
 4      1 +1.5204000e-02 7.12998800e+02 7.81860800e-03 9.69525700e-02
        3 -1    0    0  501    0 +0.0000000000e+00 +0.0000000000e+00 +2.6626788059e+02 2.6626788059e+02 0.0000000000e+00 0.0000e+00 -1.0000e+00
       -3 -1    0    0    0  501 -0.0000000000e+00 -0.0000000000e+00 -4.7730817892e+02 4.7730817892e+02 0.0000000000e+00 0.0000e+00 1.0000e+00
     -556  1    1    2    0    0 -1.6760288980e+02 +2.4134228006e+02 -1.3417601990e+02 3.7992108276e+02 2.0000000000e+02 0.0000e+00 1.0000e+00
      556  1    1    2    0    0 +1.6760288980e+02 -2.4134228006e+02 -7.6864278426e+01 3.6365497674e+02 2.0000000000e+02 0.0000e+00 -1.0000e+00
<mgrwt>
<rscale>  0 0.71299884E+03</rscale>
<asrwt>0</asrwt>
<pdfrwt beam="1">  1        3 0.40964290E-01 0.71299884E+03</pdfrwt>
<pdfrwt beam="2">  1       -3 0.73432027E-01 0.71299884E+03</pdfrwt>
<totfact> 0.27457950E+01</totfact>
</mgrwt>
</event>
<event>
 4      1 +1.5204000e-02 8.00895300e+02 7.81860800e-03 9.55872200e-02
       -2 -1    0    0    0  501 -0.0000000000e+00 +0.0000000000e+00 +1.7365636797e+02 1.7365636797e+02 0.0000000000e+00 0.0000e+00 -1.0000e+00
        2 -1    0    0  501    0 +0.0000000000e+00 -0.0000000000e+00 -9.2342332171e+02 9.2342332171e+02 0.0000000000e+00 0.0000e+00 1.0000e+00
     -556  1    1    2    0    0 +3.0666657664e+01 -2.3728497654e+02 -3.0752039690e+01 3.1335330209e+02 2.0000000000e+02 0.0000e+00 -1.0000e+00
      556  1    1    2    0    0 -3.0666657664e+01 +2.3728497654e+02 -7.1901491405e+02 7.8372638759e+02 2.0000000000e+02 0.0000e+00 1.0000e+00
<mgrwt>
<rscale>  0 0.80089535E+03</rscale>
<asrwt>0</asrwt>
<pdfrwt beam="2">  1        2 0.14206512E+00 0.80089535E+03</pdfrwt>
<pdfrwt beam="1">  1       -2 0.26716365E-01 0.80089535E+03</pdfrwt>
<totfact> 0.36074393E+02</totfact>
</mgrwt>
</event>
<event>
 4      1 +1.5204000e-02 1.83863300e+03 7.81860800e-03 8.68602000e-02
       -2 -1    0    0    0  501 -0.0000000000e+00 +0.0000000000e+00 +7.0907308537e+02 7.0907308537e+02 0.0000000000e+00 0.0000e+00 1.0000e+00
        2 -1    0    0  501    0 +0.0000000000e+00 -0.0000000000e+00 -1.1918984265e+03 1.1918984265e+03 0.0000000000e+00 0.0000e+00 -1.0000e+00
     -556  1    1    2    0    0 -6.7344623261e+02 +5.6050421419e+02 -4.1335978398e+01 8.9966853088e+02 2.0000000000e+02 0.0000e+00 1.0000e+00
      556  1    1    2    0    0 +6.7344623261e+02 -5.6050421419e+02 -4.4148936274e+02 1.0013029810e+03 2.0000000000e+02 0.0000e+00 -1.0000e+00
<mgrwt>
<rscale>  0 0.18386333E+04</rscale>
<asrwt>0</asrwt>
<pdfrwt beam="2">  1        2 0.18336898E+00 0.18386333E+04</pdfrwt>
<pdfrwt beam="1">  1       -2 0.10908817E+00 0.18386333E+04</pdfrwt>
<totfact> 0.12087233E+01</totfact>
</mgrwt>
</event>
<event>
 4      1 +1.5204000e-02 5.39781500e+02 7.81860800e-03 1.00388700e-01
       -1 -1    0    0    0  501 -0.0000000000e+00 +0.0000000000e+00 +2.4543750371e+01 2.4543750371e+01 0.0000000000e+00 0.0000e+00 1.0000e+00
        1 -1    0    0  501    0 +0.0000000000e+00 -0.0000000000e+00 -2.9678027816e+03 2.9678027816e+03 0.0000000000e+00 0.0000e+00 -1.0000e+00
     -556  1    1    2    0    0 -3.5737135914e+01 -1.7675131944e+02 -1.3720232216e+03 1.3982009485e+03 2.0000000000e+02 0.0000e+00 -1.0000e+00
      556  1    1    2    0    0 +3.5737135914e+01 +1.7675131944e+02 -1.5712358096e+03 1.5941455835e+03 2.0000000000e+02 0.0000e+00 1.0000e+00
<mgrwt>
<rscale>  0 0.53978148E+03</rscale>
<asrwt>0</asrwt>
<pdfrwt beam="2">  1        1 0.45658524E+00 0.53978148E+03</pdfrwt>
<pdfrwt beam="1">  1       -1 0.37759600E-02 0.53978148E+03</pdfrwt>
<totfact> 0.19470683E+02</totfact>
</mgrwt>
</event>
<event>
 4      1 +1.5204000e-02 7.41781100e+02 7.81860800e-03 9.64833300e-02
       -4 -1    0    0    0  501 -0.0000000000e+00 +0.0000000000e+00 +8.1852304772e+02 8.1852304772e+02 0.0000000000e+00 0.0000e+00 1.0000e+00
        4 -1    0    0  501    0 +0.0000000000e+00 -0.0000000000e+00 -1.6805854672e+02 1.6805854672e+02 0.0000000000e+00 0.0000e+00 -1.0000e+00
     -556  1    1    2    0    0 +6.8566027299e+01 +2.9846931906e+02 +4.0694510528e+02 5.4716501463e+02 2.0000000000e+02 0.0000e+00 1.0000e+00
      556  1    1    2    0    0 -6.8566027299e+01 -2.9846931906e+02 +2.4351939572e+02 4.3941657981e+02 2.0000000000e+02 0.0000e+00 -1.0000e+00
<mgrwt>
<rscale>  0 0.74178108E+03</rscale>
<asrwt>0</asrwt>
<pdfrwt beam="2">  1        4 0.25855162E-01 0.74178108E+03</pdfrwt>
<pdfrwt beam="1">  1       -4 0.12592662E+00 0.74178108E+03</pdfrwt>
<totfact> 0.13351078E+01</totfact>
</mgrwt>
</event>
<event>
 4      1 +1.5204000e-02 5.48853600e+02 7.81860800e-03 1.00176000e-01
        2 -1    0    0  501    0 +0.0000000000e+00 +0.0000000000e+00 +1.5147051234e+02 1.5147051234e+02 0.0000000000e+00 0.0000e+00 -1.0000e+00
       -2 -1    0    0    0  501 -0.0000000000e+00 -0.0000000000e+00 -4.9719288286e+02 4.9719288286e+02 0.0000000000e+00 0.0000e+00 1.0000e+00
     -556  1    1    2    0    0 -1.6301988603e+02 -5.0299719811e+01 -7.9768225487e+01 2.7471533421e+02 2.0000000000e+02 0.0000e+00 1.0000e+00
      556  1    1    2    0    0 +1.6301988603e+02 +5.0299719811e+01 -2.6595414504e+02 3.7394806099e+02 2.0000000000e+02 0.0000e+00 -1.0000e+00
<mgrwt>
<rscale>  0 0.54885357E+03</rscale>
<asrwt>0</asrwt>
<pdfrwt beam="1">  1        2 0.23303156E-01 0.54885357E+03</pdfrwt>
<pdfrwt beam="2">  1       -2 0.76491212E-01 0.54885357E+03</pdfrwt>
<totfact> 0.36704719E+02</totfact>
</mgrwt>
</event>
<event>
 4      1 +1.5204000e-02 7.69209800e+02 7.81860800e-03 9.60568600e-02
        2 -1    0    0  501    0 +0.0000000000e+00 +0.0000000000e+00 +1.5657572812e+03 1.5657572812e+03 0.0000000000e+00 0.0000e+00 -1.0000e+00
       -2 -1    0    0    0  501 -0.0000000000e+00 -0.0000000000e+00 -9.4472462671e+01 9.4472462671e+01 0.0000000000e+00 0.0000e+00 1.0000e+00
     -556  1    1    2    0    0 +2.7378103978e+01 +1.1740854094e+02 +7.6065132367e+01 2.4560177203e+02 2.0000000000e+02 0.0000e+00 1.0000e+00
      556  1    1    2    0    0 -2.7378103978e+01 -1.1740854094e+02 +1.3952196861e+03 1.4146279718e+03 2.0000000000e+02 0.0000e+00 -1.0000e+00
<mgrwt>
<rscale>  0 0.76920984E+03</rscale>
<asrwt>0</asrwt>
<pdfrwt beam="1">  1        2 0.24088572E+00 0.76920984E+03</pdfrwt>
<pdfrwt beam="2">  1       -2 0.14534226E-01 0.76920984E+03</pdfrwt>
<totfact> 0.43616652E+02</totfact>
</mgrwt>
</event>
<event>
 4      1 +1.5204000e-02 8.21196700e+02 7.81860800e-03 9.52983300e-02
        4 -1    0    0  501    0 +0.0000000000e+00 +0.0000000000e+00 +2.4397860878e+02 2.4397860878e+02 0.0000000000e+00 0.0000e+00 -1.0000e+00
       -4 -1    0    0    0  501 -0.0000000000e+00 -0.0000000000e+00 -6.9100729024e+02 6.9100729024e+02 0.0000000000e+00 0.0000e+00 1.0000e+00
     -556  1    1    2    0    0 +2.0454429071e+02 -3.5907379210e+00 -5.5884010742e+02 6.2781647471e+02 2.0000000000e+02 0.0000e+00 1.0000e+00
      556  1    1    2    0    0 -2.0454429071e+02 +3.5907379210e+00 +1.1181142595e+02 3.0716942431e+02 2.0000000000e+02 0.0000e+00 -1.0000e+00
<mgrwt>
<rscale>  0 0.82119668E+03</rscale>
<asrwt>0</asrwt>
<pdfrwt beam="1">  1        4 0.37535172E-01 0.82119668E+03</pdfrwt>
<pdfrwt beam="2">  1       -4 0.10630881E+00 0.82119668E+03</pdfrwt>
<totfact> 0.98213283E+00</totfact>
</mgrwt>
</event>
<event>
 4      1 +1.5204000e-02 4.95792100e+02 7.81860800e-03 1.01488300e-01
        2 -1    0    0  501    0 +0.0000000000e+00 +0.0000000000e+00 +1.2445503098e+03 1.2445503098e+03 0.0000000000e+00 0.0000e+00 -1.0000e+00
       -2 -1    0    0    0  501 -0.0000000000e+00 -0.0000000000e+00 -4.9377227291e+01 4.9377227291e+01 0.0000000000e+00 0.0000e+00 1.0000e+00
     -556  1    1    2    0    0 -7.9435512320e+01 -1.2304859904e+02 +5.9440600665e+02 6.4402597702e+02 2.0000000000e+02 0.0000e+00 1.0000e+00
      556  1    1    2    0    0 +7.9435512320e+01 +1.2304859904e+02 +6.0076707590e+02 6.4990156011e+02 2.0000000000e+02 0.0000e+00 -1.0000e+00
<mgrwt>
<rscale>  0 0.49579207E+03</rscale>
<asrwt>0</asrwt>
<pdfrwt beam="1">  1        2 0.19146925E+00 0.49579207E+03</pdfrwt>
<pdfrwt beam="2">  1       -2 0.75964975E-02 0.49579207E+03</pdfrwt>
<totfact> 0.19273953E+03</totfact>
</mgrwt>
</event>
<event>
 4      1 +1.5204000e-02 4.80420400e+02 7.81860800e-03 1.01902000e-01
        1 -1    0    0  501    0 +0.0000000000e+00 +0.0000000000e+00 +8.7561320138e+02 8.7561320138e+02 0.0000000000e+00 0.0000e+00 -1.0000e+00
       -1 -1    0    0    0  501 -0.0000000000e+00 -0.0000000000e+00 -6.5897744292e+01 6.5897744292e+01 0.0000000000e+00 0.0000e+00 1.0000e+00
     -556  1    1    2    0    0 -1.1241064125e+02 +1.0532393359e+01 +5.4279303199e+02 5.8938218429e+02 2.0000000000e+02 0.0000e+00 -1.0000e+00
      556  1    1    2    0    0 +1.1241064125e+02 -1.0532393359e+01 +2.6692242510e+02 3.5212876139e+02 2.0000000000e+02 0.0000e+00 1.0000e+00
<mgrwt>
<rscale>  0 0.48042038E+03</rscale>
<asrwt>0</asrwt>
<pdfrwt beam="1">  1        1 0.13470972E+00 0.48042038E+03</pdfrwt>
<pdfrwt beam="2">  1       -1 0.10138115E-01 0.48042038E+03</pdfrwt>
<totfact> 0.11889092E+03</totfact>
</mgrwt>
</event>
<event>
 4      1 +1.5204000e-02 1.02912100e+03 7.81860800e-03 9.27717000e-02
        1 -1    0    0  501    0 +0.0000000000e+00 +0.0000000000e+00 +1.6098327728e+03 1.6098327728e+03 0.0000000000e+00 0.0000e+00 1.0000e+00
       -1 -1    0    0    0  501 -0.0000000000e+00 -0.0000000000e+00 -1.6447190183e+02 1.6447190183e+02 0.0000000000e+00 0.0000e+00 -1.0000e+00
     -556  1    1    2    0    0 -3.9278789386e+02 +3.8424629211e+01 +2.6975270312e+02 5.1819427103e+02 2.0000000000e+02 0.0000e+00 -1.0000e+00
      556  1    1    2    0    0 +3.9278789386e+02 -3.8424629211e+01 +1.1756081678e+03 1.2561104036e+03 2.0000000000e+02 0.0000e+00 1.0000e+00
<mgrwt>
<rscale>  0 0.10291205E+04</rscale>
<asrwt>0</asrwt>
<pdfrwt beam="1">  1        1 0.24766657E+00 0.10291205E+04</pdfrwt>
<pdfrwt beam="2">  1       -1 0.25303371E-01 0.10291205E+04</pdfrwt>
<totfact> 0.75482373E+01</totfact>
</mgrwt>
</event>
<event>
 4      1 +1.5204000e-02 5.73978200e+02 7.81860800e-03 9.96091400e-02
       -2 -1    0    0    0  501 -0.0000000000e+00 +0.0000000000e+00 +5.2849293682e+01 5.2849293682e+01 0.0000000000e+00 0.0000e+00 -1.0000e+00
        2 -1    0    0  501    0 +0.0000000000e+00 -0.0000000000e+00 -1.5584452952e+03 1.5584452952e+03 0.0000000000e+00 0.0000e+00 1.0000e+00
     -556  1    1    2    0    0 +7.6217683765e+01 +1.6805065732e+01 -1.2874367912e+03 1.3052145559e+03 2.0000000000e+02 0.0000e+00 1.0000e+00
      556  1    1    2    0    0 -7.6217683765e+01 -1.6805065732e+01 -2.1815921031e+02 3.0608003299e+02 2.0000000000e+02 0.0000e+00 -1.0000e+00
<mgrwt>
<rscale>  0 0.57397816E+03</rscale>
<asrwt>0</asrwt>
<pdfrwt beam="2">  1        2 0.23976081E+00 0.57397816E+03</pdfrwt>
<pdfrwt beam="1">  1       -2 0.81306607E-02 0.57397816E+03</pdfrwt>
<totfact> 0.11516661E+03</totfact>
</mgrwt>
</event>
<event>
 4      1 +1.5204000e-02 6.15017200e+02 7.81860800e-03 9.87473100e-02
       -1 -1    0    0    0  501 -0.0000000000e+00 +0.0000000000e+00 +5.7731283768e+02 5.7731283768e+02 0.0000000000e+00 0.0000e+00 1.0000e+00
        1 -1    0    0  501    0 +0.0000000000e+00 -0.0000000000e+00 -1.6379599711e+02 1.6379599711e+02 0.0000000000e+00 0.0000e+00 -1.0000e+00
     -556  1    1    2    0    0 +1.4488824997e+02 -8.2619611809e+01 +4.0381875310e+02 4.8050826277e+02 2.0000000000e+02 0.0000e+00 1.0000e+00
      556  1    1    2    0    0 -1.4488824997e+02 +8.2619611809e+01 +9.6980874679e+00 2.6060057202e+02 2.0000000000e+02 0.0000e+00 -1.0000e+00
<mgrwt>
<rscale>  0 0.61501718E+03</rscale>
<asrwt>0</asrwt>
<pdfrwt beam="2">  1        1 0.25199384E-01 0.61501718E+03</pdfrwt>
<pdfrwt beam="1">  1       -1 0.88817359E-01 0.61501718E+03</pdfrwt>
<totfact> 0.24429008E+02</totfact>
</mgrwt>
</event>
<event>
 4      1 +1.5204000e-02 7.14013900e+02 7.81860800e-03 9.69356200e-02
        4 -1    0    0  501    0 +0.0000000000e+00 +0.0000000000e+00 +4.7526285320e+02 4.7526285320e+02 0.0000000000e+00 0.0000e+00 1.0000e+00
       -4 -1    0    0    0  501 -0.0000000000e+00 -0.0000000000e+00 -2.6817575107e+02 2.6817575107e+02 0.0000000000e+00 0.0000e+00 -1.0000e+00
     -556  1    1    2    0    0 +2.4646241593e+02 -1.4695190841e+02 +1.7801291812e+02 3.9246297261e+02 2.0000000000e+02 0.0000e+00 1.0000e+00
      556  1    1    2    0    0 -2.4646241593e+02 +1.4695190841e+02 +2.9074184011e+01 3.5097563167e+02 2.0000000000e+02 0.0000e+00 -1.0000e+00
<mgrwt>
<rscale>  0 0.71401393E+03</rscale>
<asrwt>0</asrwt>
<pdfrwt beam="1">  1        4 0.73117362E-01 0.71401393E+03</pdfrwt>
<pdfrwt beam="2">  1       -4 0.41257808E-01 0.71401393E+03</pdfrwt>
<totfact> 0.19321725E+01</totfact>
</mgrwt>
</event>
<event>
 4      1 +1.5204000e-02 4.68061100e+02 7.81860800e-03 1.02246900e-01
        1 -1    0    0  501    0 +0.0000000000e+00 +0.0000000000e+00 +1.1764584635e+02 1.1764584635e+02 0.0000000000e+00 0.0000e+00 -1.0000e+00
       -1 -1    0    0    0  501 -0.0000000000e+00 -0.0000000000e+00 -4.6555230608e+02 4.6555230608e+02 0.0000000000e+00 0.0000e+00 1.0000e+00
     -556  1    1    2    0    0 -5.1953654050e+01 +6.3829569057e+01 -6.2530342242e+01 2.2512982867e+02 2.0000000000e+02 0.0000e+00 -1.0000e+00
      556  1    1    2    0    0 +5.1953654050e+01 -6.3829569057e+01 -2.8537611748e+02 3.5806832377e+02 2.0000000000e+02 0.0000e+00 1.0000e+00
<mgrwt>
<rscale>  0 0.46806109E+03</rscale>
<asrwt>0</asrwt>
<pdfrwt beam="1">  1        1 0.18099361E-01 0.46806109E+03</pdfrwt>
<pdfrwt beam="2">  1       -1 0.71623433E-01 0.46806109E+03</pdfrwt>
<totfact> 0.59601401E+02</totfact>
</mgrwt>
</event>
<event>
 4      1 +1.5204000e-02 6.35938000e+02 7.81860800e-03 9.83352900e-02
        1 -1    0    0  501    0 +0.0000000000e+00 +0.0000000000e+00 +2.2115829060e+03 2.2115829060e+03 0.0000000000e+00 0.0000e+00 -1.0000e+00
       -1 -1    0    0    0  501 -0.0000000000e+00 -0.0000000000e+00 -4.5715800828e+01 4.5715800828e+01 0.0000000000e+00 0.0000e+00 1.0000e+00
     -556  1    1    2    0    0 +1.9580272977e+02 +1.3633654610e+02 +1.3123657494e+03 1.3487884278e+03 2.0000000000e+02 0.0000e+00 -1.0000e+00
      556  1    1    2    0    0 -1.9580272977e+02 -1.3633654610e+02 +8.5350135579e+02 9.0851027904e+02 2.0000000000e+02 0.0000e+00 1.0000e+00
<mgrwt>
<rscale>  0 0.63593800E+03</rscale>
<asrwt>0</asrwt>
<pdfrwt beam="1">  1        1 0.34024344E+00 0.63593800E+03</pdfrwt>
<pdfrwt beam="2">  1       -1 0.70332019E-02 0.63593800E+03</pdfrwt>
<totfact> 0.24513954E+02</totfact>
</mgrwt>
</event>
<event>
 4      1 +1.5204000e-02 6.39857800e+02 7.81860800e-03 9.82599900e-02
        2 -1    0    0  501    0 +0.0000000000e+00 +0.0000000000e+00 +2.3367473392e+02 2.3367473392e+02 0.0000000000e+00 0.0000e+00 -1.0000e+00
       -2 -1    0    0    0  501 -0.0000000000e+00 -0.0000000000e+00 -4.3802120291e+02 4.3802120291e+02 0.0000000000e+00 0.0000e+00 1.0000e+00
     -556  1    1    2    0    0 -1.7804070797e+02 +1.6891001008e+02 -5.3777185387e+01 3.2112469676e+02 2.0000000000e+02 0.0000e+00 -1.0000e+00
      556  1    1    2    0    0 +1.7804070797e+02 -1.6891001008e+02 -1.5056928360e+02 3.5057124007e+02 2.0000000000e+02 0.0000e+00 1.0000e+00
<mgrwt>
<rscale>  0 0.63985776E+03</rscale>
<asrwt>0</asrwt>
<pdfrwt beam="1">  1        2 0.35949959E-01 0.63985776E+03</pdfrwt>
<pdfrwt beam="2">  1       -2 0.67387877E-01 0.63985776E+03</pdfrwt>
<totfact> 0.29613409E+02</totfact>
</mgrwt>
</event>
<event>
 4      1 +1.5204000e-02 7.07589100e+02 7.81860800e-03 9.70434100e-02
        2 -1    0    0  501    0 +0.0000000000e+00 +0.0000000000e+00 +4.9661482718e+02 4.9661482718e+02 0.0000000000e+00 0.0000e+00 -1.0000e+00
       -2 -1    0    0    0  501 -0.0000000000e+00 -0.0000000000e+00 -2.5204764519e+02 2.5204764519e+02 0.0000000000e+00 0.0000e+00 1.0000e+00
     -556  1    1    2    0    0 -2.4276947328e+02 -1.6186932590e+02 +1.1630755250e+02 3.7237903082e+02 2.0000000000e+02 0.0000e+00 1.0000e+00
      556  1    1    2    0    0 +2.4276947328e+02 +1.6186932590e+02 +1.2825962948e+02 3.7628344155e+02 2.0000000000e+02 0.0000e+00 -1.0000e+00
<mgrwt>
<rscale>  0 0.70758914E+03</rscale>
<asrwt>0</asrwt>
<pdfrwt beam="1">  1        2 0.76402281E-01 0.70758914E+03</pdfrwt>
<pdfrwt beam="2">  1       -2 0.38776561E-01 0.70758914E+03</pdfrwt>
<totfact> 0.39307360E+02</totfact>
</mgrwt>
</event>
<event>
 4      1 +1.5204000e-02 5.63637000e+02 7.81860800e-03 9.98385900e-02
       -2 -1    0    0    0  501 -0.0000000000e+00 +0.0000000000e+00 +1.3716233899e+02 1.3716233899e+02 0.0000000000e+00 0.0000e+00 1.0000e+00
        2 -1    0    0  501    0 +0.0000000000e+00 -0.0000000000e+00 -5.7903401436e+02 5.7903401436e+02 0.0000000000e+00 0.0000e+00 -1.0000e+00
     -556  1    1    2    0    0 +7.2456211011e+01 +6.5201596322e+01 -4.4073048899e+02 4.9370488614e+02 2.0000000000e+02 0.0000e+00 -1.0000e+00
      556  1    1    2    0    0 -7.2456211011e+01 -6.5201596322e+01 -1.1411863802e+00 2.2249146721e+02 2.0000000000e+02 0.0000e+00 1.0000e+00
<mgrwt>
<rscale>  0 0.56363697E+03</rscale>
<asrwt>0</asrwt>
<pdfrwt beam="2">  1        2 0.89082157E-01 0.56363697E+03</pdfrwt>
<pdfrwt beam="1">  1       -2 0.21101898E-01 0.56363697E+03</pdfrwt>
<totfact> 0.10084640E+03</totfact>
</mgrwt>
</event>
<event>
 4      1 +1.5204000e-02 5.94185700e+02 7.81860800e-03 9.91754300e-02
        2 -1    0    0  501    0 +0.0000000000e+00 +0.0000000000e+00 +1.1871647632e+03 1.1871647632e+03 0.0000000000e+00 0.0000e+00 -1.0000e+00
       -2 -1    0    0    0  501 -0.0000000000e+00 -0.0000000000e+00 -7.4348702642e+01 7.4348702642e+01 0.0000000000e+00 0.0000e+00 1.0000e+00
     -556  1    1    2    0    0 -1.1275949508e+02 -1.8536516498e+02 +6.2962290312e+02 6.9534160544e+02 2.0000000000e+02 0.0000e+00 -1.0000e+00
      556  1    1    2    0    0 +1.1275949508e+02 +1.8536516498e+02 +4.8319315745e+02 5.6617186042e+02 2.0000000000e+02 0.0000e+00 1.0000e+00
<mgrwt>
<rscale>  0 0.59418569E+03</rscale>
<asrwt>0</asrwt>
<pdfrwt beam="1">  1        2 0.18264072E+00 0.59418569E+03</pdfrwt>
<pdfrwt beam="2">  1       -2 0.11438263E-01 0.59418569E+03</pdfrwt>
<totfact> 0.10742474E+03</totfact>
</mgrwt>
</event>
<event>
 4      1 +1.5204000e-02 7.95318900e+02 7.81860800e-03 9.56681800e-02
       -2 -1    0    0    0  501 -0.0000000000e+00 +0.0000000000e+00 +3.9533331417e+02 3.9533331417e+02 0.0000000000e+00 0.0000e+00 1.0000e+00
        2 -1    0    0  501    0 +0.0000000000e+00 -0.0000000000e+00 -3.9999928912e+02 3.9999928912e+02 0.0000000000e+00 0.0000e+00 -1.0000e+00
     -556  1    1    2    0    0 -3.5011821969e+00 +3.3654534434e+02 +6.7367692362e+01 3.9725738891e+02 2.0000000000e+02 0.0000e+00 1.0000e+00
      556  1    1    2    0    0 +3.5011821969e+00 -3.3654534434e+02 -7.2033667320e+01 3.9807521438e+02 2.0000000000e+02 0.0000e+00 -1.0000e+00
<mgrwt>
<rscale>  0 0.79531892E+03</rscale>
<asrwt>0</asrwt>
<pdfrwt beam="2">  1        2 0.61538352E-01 0.79531892E+03</pdfrwt>
<pdfrwt beam="1">  1       -2 0.60820510E-01 0.79531892E+03</pdfrwt>
<totfact> 0.20166350E+02</totfact>
</mgrwt>
</event>
<event>
 4      1 +1.5204000e-02 8.57833700e+02 7.81860800e-03 9.47988300e-02
        2 -1    0    0  501    0 +0.0000000000e+00 +0.0000000000e+00 +1.8565356960e+02 1.8565356960e+02 0.0000000000e+00 0.0000e+00 -1.0000e+00
       -2 -1    0    0    0  501 -0.0000000000e+00 -0.0000000000e+00 -9.9092992103e+02 9.9092992103e+02 0.0000000000e+00 0.0000e+00 1.0000e+00
     -556  1    1    2    0    0 -1.0620205505e+02 -2.3104873616e+02 -7.8889499942e+02 8.5265333817e+02 2.0000000000e+02 0.0000e+00 1.0000e+00
      556  1    1    2    0    0 +1.0620205505e+02 +2.3104873616e+02 -1.6381352010e+01 3.2393015246e+02 2.0000000000e+02 0.0000e+00 -1.0000e+00
<mgrwt>
<rscale>  0 0.85783373E+03</rscale>
<asrwt>0</asrwt>
<pdfrwt beam="1">  1        2 0.28562087E-01 0.85783373E+03</pdfrwt>
<pdfrwt beam="2">  1       -2 0.15245076E+00 0.85783373E+03</pdfrwt>
<totfact> 0.54299654E+01</totfact>
</mgrwt>
</event>
<event>
 4      1 +1.5204000e-02 1.22991200e+03 7.81860800e-03 9.08707000e-02
        3 -1    0    0  501    0 +0.0000000000e+00 +0.0000000000e+00 +6.4819334309e+02 6.4819334309e+02 0.0000000000e+00 0.0000e+00 -1.0000e+00
       -3 -1    0    0    0  501 -0.0000000000e+00 -0.0000000000e+00 -5.8342313990e+02 5.8342313990e+02 0.0000000000e+00 0.0000e+00 1.0000e+00
     -556  1    1    2    0    0 +5.6234254913e+02 -1.3664933819e+02 +8.9637846546e+01 6.1881913976e+02 2.0000000000e+02 0.0000e+00 -1.0000e+00
      556  1    1    2    0    0 -5.6234254913e+02 +1.3664933819e+02 -2.4867643354e+01 6.1279734324e+02 2.0000000000e+02 0.0000e+00 1.0000e+00
<mgrwt>
<rscale>  0 0.12299122E+04</rscale>
<asrwt>0</asrwt>
<pdfrwt beam="1">  1        3 0.99722053E-01 0.12299122E+04</pdfrwt>
<pdfrwt beam="2">  1       -3 0.89757406E-01 0.12299122E+04</pdfrwt>
<totfact> 0.25499125E+00</totfact>
</mgrwt>
</event>
<event>
 4      1 +1.5204000e-02 5.34627500e+02 7.81860800e-03 1.00511600e-01
       -1 -1    0    0    0  501 -0.0000000000e+00 +0.0000000000e+00 +3.8849904302e+01 3.8849904302e+01 0.0000000000e+00 0.0000e+00 -1.0000e+00
        1 -1    0    0  501    0 +0.0000000000e+00 -0.0000000000e+00 -1.8393005699e+03 1.8393005699e+03 0.0000000000e+00 0.0000e+00 1.0000e+00
     -556  1    1    2    0    0 +1.7424573683e+02 -1.7545646682e+01 -8.0165904772e+02 8.4458667720e+02 2.0000000000e+02 0.0000e+00 1.0000e+00
      556  1    1    2    0    0 -1.7424573683e+02 +1.7545646682e+01 -9.9879161789e+02 1.0335637970e+03 2.0000000000e+02 0.0000e+00 -1.0000e+00
<mgrwt>
<rscale>  0 0.53462754E+03</rscale>
<asrwt>0</asrwt>
<pdfrwt beam="2">  1        1 0.28296926E+00 0.53462754E+03</pdfrwt>
<pdfrwt beam="1">  1       -1 0.59769097E-02 0.53462754E+03</pdfrwt>
<totfact> 0.56209760E+02</totfact>
</mgrwt>
</event>
<event>
 4      1 +1.5204000e-02 4.15478200e+02 7.81860800e-03 1.03854800e-01
       -3 -1    0    0    0  501 -0.0000000000e+00 +0.0000000000e+00 +1.7172495629e+03 1.7172495629e+03 0.0000000000e+00 0.0000e+00 1.0000e+00
        3 -1    0    0  501    0 +0.0000000000e+00 -0.0000000000e+00 -2.5130617239e+01 2.5130617239e+01 0.0000000000e+00 0.0000e+00 -1.0000e+00
     -556  1    1    2    0    0 +6.8381335968e+00 -3.2258174818e+01 +1.0367767430e+03 1.0564058712e+03 2.0000000000e+02 0.0000e+00 1.0000e+00
      556  1    1    2    0    0 -6.8381335968e+00 +3.2258174818e+01 +6.5534220267e+02 6.8597430893e+02 2.0000000000e+02 0.0000e+00 -1.0000e+00
<mgrwt>
<rscale>  0 0.41547824E+03</rscale>
<asrwt>0</asrwt>
<pdfrwt beam="2">  1        3 0.38662502E-02 0.41547824E+03</pdfrwt>
<pdfrwt beam="1">  1       -3 0.26419215E+00 0.41547824E+03</pdfrwt>
<totfact> 0.59749780E+01</totfact>
</mgrwt>
</event>
<event>
 4      1 +1.5204000e-02 7.46172900e+02 7.81860800e-03 9.64137400e-02
        1 -1    0    0  501    0 +0.0000000000e+00 +0.0000000000e+00 +5.1574077928e+02 5.1574077928e+02 0.0000000000e+00 0.0000e+00 -1.0000e+00
       -1 -1    0    0    0  501 -0.0000000000e+00 -0.0000000000e+00 -2.6989040393e+02 2.6989040393e+02 0.0000000000e+00 0.0000e+00 1.0000e+00
     -556  1    1    2    0    0 -2.9358730879e+02 -6.5946186506e+01 +2.4995488617e+01 3.6217010071e+02 2.0000000000e+02 0.0000e+00 -1.0000e+00
      556  1    1    2    0    0 +2.9358730879e+02 +6.5946186506e+01 +2.2085488674e+02 4.2346108250e+02 2.0000000000e+02 0.0000e+00 1.0000e+00
<mgrwt>
<rscale>  0 0.74617287E+03</rscale>
<asrwt>0</asrwt>
<pdfrwt beam="1">  1        1 0.79344735E-01 0.74617287E+03</pdfrwt>
<pdfrwt beam="2">  1       -1 0.41521601E-01 0.74617287E+03</pdfrwt>
<totfact> 0.24436827E+02</totfact>
</mgrwt>
</event>
<event>
 4      1 +1.5204000e-02 5.56002800e+02 7.81860800e-03 1.00011400e-01
       -2 -1    0    0    0  501 -0.0000000000e+00 +0.0000000000e+00 +6.8307989868e+01 6.8307989868e+01 0.0000000000e+00 0.0000e+00 -1.0000e+00
        2 -1    0    0  501    0 +0.0000000000e+00 -0.0000000000e+00 -1.1314165737e+03 1.1314165737e+03 0.0000000000e+00 0.0000e+00 1.0000e+00
     -556  1    1    2    0    0 -1.4076276404e+02 -6.4141358114e+01 -7.8092832603e+02 8.2083939962e+02 2.0000000000e+02 0.0000e+00 1.0000e+00
      556  1    1    2    0    0 +1.4076276404e+02 +6.4141358114e+01 -2.8218025775e+02 3.7888516390e+02 2.0000000000e+02 0.0000e+00 -1.0000e+00
<mgrwt>
<rscale>  0 0.55600285E+03</rscale>
<asrwt>0</asrwt>
<pdfrwt beam="2">  1        2 0.17406407E+00 0.55600285E+03</pdfrwt>
<pdfrwt beam="1">  1       -2 0.10508923E-01 0.55600285E+03</pdfrwt>
<totfact> 0.13328270E+03</totfact>
</mgrwt>
</event>
<event>
 4      1 +1.5204000e-02 5.72965800e+02 7.81860800e-03 9.96313700e-02
       -2 -1    0    0    0  501 -0.0000000000e+00 +0.0000000000e+00 +1.3218926617e+02 1.3218926617e+02 0.0000000000e+00 0.0000e+00 1.0000e+00
        2 -1    0    0  501    0 +0.0000000000e+00 -0.0000000000e+00 -6.2087078809e+02 6.2087078809e+02 0.0000000000e+00 0.0000e+00 -1.0000e+00
     -556  1    1    2    0    0 -4.3486644484e+01 +8.1548722664e+01 -3.6689258351e+00 2.2035140897e+02 2.0000000000e+02 0.0000e+00 1.0000e+00
      556  1    1    2    0    0 +4.3486644484e+01 -8.1548722664e+01 -4.8501259609e+02 5.3270864530e+02 2.0000000000e+02 0.0000e+00 -1.0000e+00
<mgrwt>
<rscale>  0 0.57296581E+03</rscale>
<asrwt>0</asrwt>
<pdfrwt beam="2">  1        2 0.95518583E-01 0.57296581E+03</pdfrwt>
<pdfrwt beam="1">  1       -2 0.20336810E-01 0.57296581E+03</pdfrwt>
<totfact> 0.98950955E+02</totfact>
</mgrwt>
</event>
<event>
 4      1 +1.5204000e-02 6.78064100e+02 7.81860800e-03 9.75549900e-02
        2 -1    0    0  501    0 +0.0000000000e+00 +0.0000000000e+00 +6.1745256229e+02 6.1745256229e+02 0.0000000000e+00 0.0000e+00 -1.0000e+00
       -2 -1    0    0    0  501 -0.0000000000e+00 -0.0000000000e+00 -1.8615638888e+02 1.8615638888e+02 0.0000000000e+00 0.0000e+00 1.0000e+00
     -556  1    1    2    0    0 +1.5137232987e+01 +2.6649592667e+02 +2.8767494851e+02 4.4046122504e+02 2.0000000000e+02 0.0000e+00 -1.0000e+00
      556  1    1    2    0    0 -1.5137232987e+01 -2.6649592667e+02 +1.4362122490e+02 3.6314772614e+02 2.0000000000e+02 0.0000e+00 1.0000e+00
<mgrwt>
<rscale>  0 0.67806412E+03</rscale>
<asrwt>0</asrwt>
<pdfrwt beam="1">  1        2 0.94992701E-01 0.67806412E+03</pdfrwt>
<pdfrwt beam="2">  1       -2 0.28639445E-01 0.67806412E+03</pdfrwt>
<totfact> 0.53854622E+02</totfact>
</mgrwt>
</event>
<event>
 4      1 +1.5204000e-02 5.35119700e+02 7.81860800e-03 1.00499800e-01
        2 -1    0    0  501    0 +0.0000000000e+00 +0.0000000000e+00 +3.6595694111e+02 3.6595694111e+02 0.0000000000e+00 0.0000e+00 -1.0000e+00
       -2 -1    0    0    0  501 -0.0000000000e+00 -0.0000000000e+00 -1.9561939976e+02 1.9561939976e+02 0.0000000000e+00 0.0000e+00 1.0000e+00
     -556  1    1    2    0    0 -1.0927116858e+02 +3.7874407558e+01 -5.6461460842e+01 2.3782883675e+02 2.0000000000e+02 0.0000e+00 1.0000e+00
      556  1    1    2    0    0 +1.0927116858e+02 -3.7874407558e+01 +2.2679900218e+02 3.2374750412e+02 2.0000000000e+02 0.0000e+00 -1.0000e+00
<mgrwt>
<rscale>  0 0.53511971E+03</rscale>
<asrwt>0</asrwt>
<pdfrwt beam="1">  1        2 0.56301068E-01 0.53511971E+03</pdfrwt>
<pdfrwt beam="2">  1       -2 0.30095292E-01 0.53511971E+03</pdfrwt>
<totfact> 0.89867377E+02</totfact>
</mgrwt>
</event>
<event>
 4      1 +1.5204000e-02 6.39961900e+02 7.81860800e-03 9.82579900e-02
        2 -1    0    0  501    0 +0.0000000000e+00 +0.0000000000e+00 +1.5287573757e+03 1.5287573757e+03 0.0000000000e+00 0.0000e+00 -1.0000e+00
       -2 -1    0    0    0  501 -0.0000000000e+00 -0.0000000000e+00 -6.6974539044e+01 6.6974539044e+01 0.0000000000e+00 0.0000e+00 1.0000e+00
     -556  1    1    2    0    0 -1.7063794004e+02 +1.4600253279e+02 +1.0035117950e+03 1.0476020088e+03 2.0000000000e+02 0.0000e+00 -1.0000e+00
      556  1    1    2    0    0 +1.7063794004e+02 -1.4600253279e+02 +4.5827104167e+02 5.4812990595e+02 2.0000000000e+02 0.0000e+00 1.0000e+00
<mgrwt>
<rscale>  0 0.63996194E+03</rscale>
<asrwt>0</asrwt>
<pdfrwt beam="1">  1        2 0.23519342E+00 0.63996194E+03</pdfrwt>
<pdfrwt beam="2">  1       -2 0.10303776E-01 0.63996194E+03</pdfrwt>
<totfact> 0.81388911E+02</totfact>
</mgrwt>
</event>
<event>
 4      1 +1.5204000e-02 4.43245800e+02 7.81860800e-03 1.02975600e-01
       -2 -1    0    0    0  501 -0.0000000000e+00 +0.0000000000e+00 +3.4492963248e+02 3.4492963248e+02 0.0000000000e+00 0.0000e+00 1.0000e+00
        2 -1    0    0  501    0 +0.0000000000e+00 -0.0000000000e+00 -1.4239631411e+02 1.4239631411e+02 0.0000000000e+00 0.0000e+00 -1.0000e+00
     -556  1    1    2    0    0 -9.0862370755e+01 -9.4803812706e-02 +1.3352248024e+02 2.5706853588e+02 2.0000000000e+02 0.0000e+00 1.0000e+00
      556  1    1    2    0    0 +9.0862370755e+01 +9.4803812706e-02 +6.9010838130e+01 2.3025741071e+02 2.0000000000e+02 0.0000e+00 -1.0000e+00
<mgrwt>
<rscale>  0 0.44324579E+03</rscale>
<asrwt>0</asrwt>
<pdfrwt beam="2">  1        2 0.21907125E-01 0.44324579E+03</pdfrwt>
<pdfrwt beam="1">  1       -2 0.53066097E-01 0.44324579E+03</pdfrwt>
<totfact> 0.85749666E+02</totfact>
</mgrwt>
</event>
<event>
 4      1 +1.5204000e-02 5.79832100e+02 7.81860800e-03 9.94815500e-02
       -1 -1    0    0    0  501 -0.0000000000e+00 +0.0000000000e+00 +1.2933643037e+02 1.2933643037e+02 0.0000000000e+00 0.0000e+00 1.0000e+00
        1 -1    0    0  501    0 +0.0000000000e+00 -0.0000000000e+00 -6.4986566682e+02 6.4986566682e+02 0.0000000000e+00 0.0000e+00 -1.0000e+00
     -556  1    1    2    0    0 +8.0349727328e+00 -2.8263261140e+00 -5.4208302723e+02 5.7786378786e+02 2.0000000000e+02 0.0000e+00 -1.0000e+00
      556  1    1    2    0    0 -8.0349727328e+00 +2.8263261140e+00 +2.1553790777e+01 2.0133830933e+02 2.0000000000e+02 0.0000e+00 1.0000e+00
<mgrwt>
<rscale>  0 0.57983206E+03</rscale>
<asrwt>0</asrwt>
<pdfrwt beam="2">  1        1 0.99979333E-01 0.57983206E+03</pdfrwt>
<pdfrwt beam="1">  1       -1 0.19897913E-01 0.57983206E+03</pdfrwt>
<totfact> 0.63427905E+02</totfact>
</mgrwt>
</event>
<event>
 4      1 +1.5204000e-02 5.21570500e+02 7.81860800e-03 1.00829700e-01
       -2 -1    0    0    0  501 -0.0000000000e+00 +0.0000000000e+00 +1.0672700584e+02 1.0672700584e+02 0.0000000000e+00 0.0000e+00 -1.0000e+00
        2 -1    0    0  501    0 +0.0000000000e+00 -0.0000000000e+00 -6.3722347804e+02 6.3722347804e+02 0.0000000000e+00 0.0000e+00 1.0000e+00
     -556  1    1    2    0    0 -8.2933203155e+01 +1.3527294548e+02 -3.4115808950e+02 4.2610506685e+02 2.0000000000e+02 0.0000e+00 1.0000e+00
      556  1    1    2    0    0 +8.2933203155e+01 -1.3527294548e+02 -1.8933838270e+02 3.1784541703e+02 2.0000000000e+02 0.0000e+00 -1.0000e+00
<mgrwt>
<rscale>  0 0.52157053E+03</rscale>
<asrwt>0</asrwt>
<pdfrwt beam="2">  1        2 0.98034380E-01 0.52157053E+03</pdfrwt>
<pdfrwt beam="1">  1       -2 0.16419540E-01 0.52157053E+03</pdfrwt>
<totfact> 0.13860365E+03</totfact>
</mgrwt>
</event>
<event>
 4      1 +1.5204000e-02 4.67217000e+02 7.81860800e-03 1.02270900e-01
        2 -1    0    0  501    0 +0.0000000000e+00 +0.0000000000e+00 +2.0579249152e+03 2.0579249152e+03 0.0000000000e+00 0.0000e+00 -1.0000e+00
       -2 -1    0    0    0  501 -0.0000000000e+00 -0.0000000000e+00 -2.6518424807e+01 2.6518424807e+01 0.0000000000e+00 0.0000e+00 1.0000e+00
     -556  1    1    2    0    0 +7.3564741486e+01 +7.5904311956e+01 +7.5557277849e+02 7.8870999699e+02 2.0000000000e+02 0.0000e+00 1.0000e+00
      556  1    1    2    0    0 -7.3564741486e+01 -7.5904311956e+01 +1.2758337119e+03 1.2957333430e+03 2.0000000000e+02 0.0000e+00 -1.0000e+00
<mgrwt>
<rscale>  0 0.46721698E+03</rscale>
<asrwt>0</asrwt>
<pdfrwt beam="1">  1        2 0.31660371E+00 0.46721698E+03</pdfrwt>
<pdfrwt beam="2">  1       -2 0.40797593E-02 0.46721698E+03</pdfrwt>
<totfact> 0.18237862E+03</totfact>
</mgrwt>
</event>
<event>
 4      1 +1.5204000e-02 4.96610000e+02 7.81860800e-03 1.01466800e-01
        1 -1    0    0  501    0 +0.0000000000e+00 +0.0000000000e+00 +6.7460997290e+01 6.7460997290e+01 0.0000000000e+00 0.0000e+00 -1.0000e+00
       -1 -1    0    0    0  501 -0.0000000000e+00 -0.0000000000e+00 -9.1394114952e+02 9.1394114952e+02 0.0000000000e+00 0.0000e+00 1.0000e+00
     -556  1    1    2    0    0 -9.4278111475e+01 -5.1824156769e+01 -2.2481833165e+02 3.1955811329e+02 2.0000000000e+02 0.0000e+00 -1.0000e+00
      556  1    1    2    0    0 +9.4278111475e+01 +5.1824156769e+01 -6.2166182058e+02 6.6184403351e+02 2.0000000000e+02 0.0000e+00 1.0000e+00
<mgrwt>
<rscale>  0 0.49661003E+03</rscale>
<asrwt>0</asrwt>
<pdfrwt beam="1">  1        1 0.10378615E-01 0.49661003E+03</pdfrwt>
<pdfrwt beam="2">  1       -1 0.14060633E+00 0.49661003E+03</pdfrwt>
<totfact> 0.27051208E+02</totfact>
</mgrwt>
</event>
<event>
 4      1 +1.5204000e-02 4.65711800e+02 7.81860800e-03 1.02313800e-01
        3 -1    0    0  501    0 +0.0000000000e+00 +0.0000000000e+00 +9.9872879363e+01 9.9872879363e+01 0.0000000000e+00 0.0000e+00 -1.0000e+00
       -3 -1    0    0    0  501 -0.0000000000e+00 -0.0000000000e+00 -5.4290888028e+02 5.4290888028e+02 0.0000000000e+00 0.0000e+00 1.0000e+00
     -556  1    1    2    0    0 -4.5708234959e+01 +1.0750048914e+02 -1.8838496276e+02 2.9855400198e+02 2.0000000000e+02 0.0000e+00 1.0000e+00
      556  1    1    2    0    0 +4.5708234959e+01 -1.0750048914e+02 -2.5465103816e+02 3.4422775766e+02 2.0000000000e+02 0.0000e+00 -1.0000e+00
<mgrwt>
<rscale>  0 0.46571181E+03</rscale>
<asrwt>0</asrwt>
<pdfrwt beam="1">  1        3 0.15365058E-01 0.46571181E+03</pdfrwt>
<pdfrwt beam="2">  1       -3 0.83524444E-01 0.46571181E+03</pdfrwt>
<totfact> 0.12584127E+02</totfact>
</mgrwt>
</event>
<event>
 4      1 +1.5204000e-02 5.12478000e+02 7.81860800e-03 1.01057200e-01
       -2 -1    0    0    0  501 -0.0000000000e+00 +0.0000000000e+00 +2.9139862580e+02 2.9139862580e+02 0.0000000000e+00 0.0000e+00 1.0000e+00
        2 -1    0    0  501    0 +0.0000000000e+00 -0.0000000000e+00 -2.2532165122e+02 2.2532165122e+02 0.0000000000e+00 0.0000e+00 -1.0000e+00
     -556  1    1    2    0    0 -1.1460034994e+02 -9.8026381322e+01 +8.7485573585e+01 2.6532270394e+02 2.0000000000e+02 0.0000e+00 1.0000e+00
      556  1    1    2    0    0 +1.1460034994e+02 +9.8026381322e+01 -2.1408599005e+01 2.5139757309e+02 2.0000000000e+02 0.0000e+00 -1.0000e+00
<mgrwt>
<rscale>  0 0.51247798E+03</rscale>
<asrwt>0</asrwt>
<pdfrwt beam="2">  1        2 0.34664870E-01 0.51247798E+03</pdfrwt>
<pdfrwt beam="1">  1       -2 0.44830558E-01 0.51247798E+03</pdfrwt>
<totfact> 0.71722347E+02</totfact>
</mgrwt>
</event>
<event>
 4      1 +1.5204000e-02 1.03147600e+03 7.81860800e-03 9.27468100e-02
       -1 -1    0    0    0  501 -0.0000000000e+00 +0.0000000000e+00 +1.8281703479e+02 1.8281703479e+02 0.0000000000e+00 0.0000e+00 1.0000e+00
        1 -1    0    0  501    0 +0.0000000000e+00 -0.0000000000e+00 -1.4549272645e+03 1.4549272645e+03 0.0000000000e+00 0.0000e+00 -1.0000e+00
     -556  1    1    2    0    0 +3.1739188755e+02 +2.6290329427e+02 -2.5988557253e+02 5.2668421585e+02 2.0000000000e+02 0.0000e+00 1.0000e+00
      556  1    1    2    0    0 -3.1739188755e+02 -2.6290329427e+02 -1.0122246572e+03 1.1110600835e+03 2.0000000000e+02 0.0000e+00 -1.0000e+00
<mgrwt>
<rscale>  0 0.10314756E+04</rscale>
<asrwt>0</asrwt>
<pdfrwt beam="2">  1        1 0.22383496E+00 0.10314756E+04</pdfrwt>
<pdfrwt beam="1">  1       -1 0.28125698E-01 0.10314756E+04</pdfrwt>
<totfact> 0.80361226E+01</totfact>
</mgrwt>
</event>
<event>
 4      1 +1.5204000e-02 6.30417100e+02 7.81860800e-03 9.84423500e-02
       -1 -1    0    0    0  501 -0.0000000000e+00 +0.0000000000e+00 +5.9179572053e+01 5.9179572053e+01 0.0000000000e+00 0.0000e+00 1.0000e+00
        1 -1    0    0  501    0 +0.0000000000e+00 -0.0000000000e+00 -1.6788974602e+03 1.6788974602e+03 0.0000000000e+00 0.0000e+00 -1.0000e+00
     -556  1    1    2    0    0 +6.6249045173e+01 +5.2892611787e+00 -1.6363437910e+02 2.6682039332e+02 2.0000000000e+02 0.0000e+00 1.0000e+00
      556  1    1    2    0    0 -6.6249045173e+01 -5.2892611787e+00 -1.4560835090e+03 1.4712566389e+03 2.0000000000e+02 0.0000e+00 -1.0000e+00
<mgrwt>
<rscale>  0 0.63041711E+03</rscale>
<asrwt>0</asrwt>
<pdfrwt beam="2">  1        1 0.25829190E+00 0.63041711E+03</pdfrwt>
<pdfrwt beam="1">  1       -1 0.91045502E-02 0.63041711E+03</pdfrwt>
<totfact> 0.37136488E+02</totfact>
</mgrwt>
</event>
<event>
 4      1 +1.5204000e-02 5.19301700e+02 7.81860800e-03 1.00886000e-01
        1 -1    0    0  501    0 +0.0000000000e+00 +0.0000000000e+00 +9.8279766033e+01 9.8279766033e+01 0.0000000000e+00 0.0000e+00 -1.0000e+00
       -1 -1    0    0    0  501 -0.0000000000e+00 -0.0000000000e+00 -6.8598621414e+02 6.8598621414e+02 0.0000000000e+00 0.0000e+00 1.0000e+00
     -556  1    1    2    0    0 +1.2118764778e+02 -8.1505116640e+01 -4.1170003957e+02 4.8044401609e+02 2.0000000000e+02 0.0000e+00 1.0000e+00
      556  1    1    2    0    0 -1.2118764778e+02 +8.1505116640e+01 -1.7600640853e+02 3.0382196408e+02 2.0000000000e+02 0.0000e+00 -1.0000e+00
<mgrwt>
<rscale>  0 0.51930170E+03</rscale>
<asrwt>0</asrwt>
<pdfrwt beam="1">  1        1 0.15119964E-01 0.51930170E+03</pdfrwt>
<pdfrwt beam="2">  1       -1 0.10553634E+00 0.51930170E+03</pdfrwt>
<totfact> 0.32685301E+02</totfact>
</mgrwt>
</event>
<event>
 4      1 +1.5204000e-02 5.91893500e+02 7.81860800e-03 9.92236900e-02
        1 -1    0    0  501    0 +0.0000000000e+00 +0.0000000000e+00 +2.0897764936e+03 2.0897764936e+03 0.0000000000e+00 0.0000e+00 -1.0000e+00
       -1 -1    0    0    0  501 -0.0000000000e+00 -0.0000000000e+00 -4.1910928260e+01 4.1910928260e+01 0.0000000000e+00 0.0000e+00 1.0000e+00
     -556  1    1    2    0    0 +4.3767996553e+01 +8.6145277330e+01 +3.1959117103e+02 3.8919810242e+02 2.0000000000e+02 0.0000e+00 1.0000e+00
      556  1    1    2    0    0 -4.3767996553e+01 -8.6145277330e+01 +1.7282743943e+03 1.7424893194e+03 2.0000000000e+02 0.0000e+00 -1.0000e+00
<mgrwt>
<rscale>  0 0.59189348E+03</rscale>
<asrwt>0</asrwt>
<pdfrwt beam="1">  1        1 0.32150400E+00 0.59189348E+03</pdfrwt>
<pdfrwt beam="2">  1       -1 0.64478367E-02 0.59189348E+03</pdfrwt>
<totfact> 0.33948156E+02</totfact>
</mgrwt>
</event>
<event>
 4      1 +1.5204000e-02 5.77625000e+02 7.81860800e-03 9.95294600e-02
        1 -1    0    0  501    0 +0.0000000000e+00 +0.0000000000e+00 +5.7473994497e+01 5.7473994497e+01 0.0000000000e+00 0.0000e+00 -1.0000e+00
       -1 -1    0    0    0  501 -0.0000000000e+00 -0.0000000000e+00 -1.4513111356e+03 1.4513111356e+03 0.0000000000e+00 0.0000e+00 1.0000e+00
     -556  1    1    2    0    0 -1.0916531257e+02 +9.5659698371e+01 -3.0646470400e+02 3.9368573528e+02 2.0000000000e+02 0.0000e+00 -1.0000e+00
      556  1    1    2    0    0 +1.0916531257e+02 -9.5659698371e+01 -1.0873724371e+03 1.1150993949e+03 2.0000000000e+02 0.0000e+00 1.0000e+00
<mgrwt>
<rscale>  0 0.57762496E+03</rscale>
<asrwt>0</asrwt>
<pdfrwt beam="1">  1        1 0.88421534E-02 0.57762496E+03</pdfrwt>
<pdfrwt beam="2">  1       -1 0.22327863E+00 0.57762496E+03</pdfrwt>
<totfact> 0.86465429E+01</totfact>
</mgrwt>
</event>
<event>
 4      1 +1.5204000e-02 4.71087700e+02 7.81860800e-03 1.02161400e-01
       -2 -1    0    0    0  501 -0.0000000000e+00 +0.0000000000e+00 +3.4982043100e+01 3.4982043100e+01 0.0000000000e+00 0.0000e+00 1.0000e+00
        2 -1    0    0  501    0 +0.0000000000e+00 -0.0000000000e+00 -1.5859823708e+03 1.5859823708e+03 0.0000000000e+00 0.0000e+00 -1.0000e+00
     -556  1    1    2    0    0 +9.9689325458e+01 -6.6139480090e+01 -8.9312205665e+02 9.2302730215e+02 2.0000000000e+02 0.0000e+00 -1.0000e+00
      556  1    1    2    0    0 -9.9689325458e+01 +6.6139480090e+01 -6.5787827101e+02 6.9793711171e+02 2.0000000000e+02 0.0000e+00 1.0000e+00
<mgrwt>
<rscale>  0 0.47108769E+03</rscale>
<asrwt>0</asrwt>
<pdfrwt beam="2">  1        2 0.24399718E+00 0.47108769E+03</pdfrwt>
<pdfrwt beam="1">  1       -2 0.53818551E-02 0.47108769E+03</pdfrwt>
<totfact> 0.21356930E+03</totfact>
</mgrwt>
</event>
<event>
 4      1 +1.5204000e-02 6.34156800e+02 7.81860800e-03 9.83697100e-02
       -2 -1    0    0    0  501 -0.0000000000e+00 +0.0000000000e+00 +8.4600599291e+01 8.4600599291e+01 0.0000000000e+00 0.0000e+00 1.0000e+00
        2 -1    0    0  501    0 +0.0000000000e+00 -0.0000000000e+00 -1.1883924235e+03 1.1883924235e+03 0.0000000000e+00 0.0000e+00 -1.0000e+00
     -556  1    1    2    0    0 +4.2328158157e+01 -3.9803661746e+01 -7.1957220334e+01 2.2034937263e+02 2.0000000000e+02 0.0000e+00 1.0000e+00
      556  1    1    2    0    0 -4.2328158157e+01 +3.9803661746e+01 -1.0318346038e+03 1.0526436501e+03 2.0000000000e+02 0.0000e+00 -1.0000e+00
<mgrwt>
<rscale>  0 0.63415680E+03</rscale>
<asrwt>0</asrwt>
<pdfrwt beam="2">  1        2 0.18282959E+00 0.63415680E+03</pdfrwt>
<pdfrwt beam="1">  1       -2 0.13015477E-01 0.63415680E+03</pdfrwt>
<totfact> 0.86530338E+02</totfact>
</mgrwt>
</event>
<event>
 4      1 +1.5204000e-02 8.91506800e+02 7.81860800e-03 9.43626100e-02
        1 -1    0    0  501    0 +0.0000000000e+00 +0.0000000000e+00 +1.2853546970e+03 1.2853546970e+03 0.0000000000e+00 0.0000e+00 -1.0000e+00
       -1 -1    0    0    0  501 -0.0000000000e+00 -0.0000000000e+00 -1.5458464630e+02 1.5458464630e+02 0.0000000000e+00 0.0000e+00 1.0000e+00
     -556  1    1    2    0    0 +1.3517049297e+02 -3.7032881677e+02 +6.5791081113e+02 7.9262925136e+02 2.0000000000e+02 0.0000e+00 -1.0000e+00
      556  1    1    2    0    0 -1.3517049297e+02 +3.7032881677e+02 +4.7285923960e+02 6.4731009198e+02 2.0000000000e+02 0.0000e+00 1.0000e+00
<mgrwt>
<rscale>  0 0.89150682E+03</rscale>
<asrwt>0</asrwt>
<pdfrwt beam="1">  1        1 0.19774687E+00 0.89150682E+03</pdfrwt>
<pdfrwt beam="2">  1       -1 0.23782254E-01 0.89150682E+03</pdfrwt>
<totfact> 0.14245136E+02</totfact>
</mgrwt>
</event>
<event>
 4      1 +1.5204000e-02 9.25818800e+02 7.81860800e-03 9.39387000e-02
        1 -1    0    0  501    0 +0.0000000000e+00 +0.0000000000e+00 +5.3914547621e+02 5.3914547621e+02 0.0000000000e+00 0.0000e+00 -1.0000e+00
       -1 -1    0    0    0  501 -0.0000000000e+00 -0.0000000000e+00 -3.9745322879e+02 3.9745322879e+02 0.0000000000e+00 0.0000e+00 1.0000e+00
     -556  1    1    2    0    0 +7.8746174055e+01 -2.8566506299e+02 -2.2665215109e+02 4.2329267148e+02 2.0000000000e+02 0.0000e+00 1.0000e+00
      556  1    1    2    0    0 -7.8746174055e+01 +2.8566506299e+02 +3.6834439851e+02 5.1330603352e+02 2.0000000000e+02 0.0000e+00 -1.0000e+00
<mgrwt>
<rscale>  0 0.92581880E+03</rscale>
<asrwt>0</asrwt>
<pdfrwt beam="1">  1        1 0.82945458E-01 0.92581880E+03</pdfrwt>
<pdfrwt beam="2">  1       -1 0.61146651E-01 0.92581880E+03</pdfrwt>
<totfact> 0.10896688E+02</totfact>
</mgrwt>
</event>
<event>
 4      1 +1.5204000e-02 9.47912100e+02 7.81860800e-03 9.36759400e-02
        1 -1    0    0  501    0 +0.0000000000e+00 +0.0000000000e+00 +2.3512661846e+03 2.3512661846e+03 0.0000000000e+00 0.0000e+00 -1.0000e+00
       -1 -1    0    0    0  501 -0.0000000000e+00 -0.0000000000e+00 -9.5537605779e+01 9.5537605779e+01 0.0000000000e+00 0.0000e+00 1.0000e+00
     -556  1    1    2    0    0 +9.1337357000e+01 -2.1779944758e+02 +2.0128604726e+02 3.6918177768e+02 2.0000000000e+02 0.0000e+00 1.0000e+00
      556  1    1    2    0    0 -9.1337357000e+01 +2.1779944758e+02 +2.0544425316e+03 2.0776220127e+03 2.0000000000e+02 0.0000e+00 -1.0000e+00
<mgrwt>
<rscale>  0 0.94791211E+03</rscale>
<asrwt>0</asrwt>
<pdfrwt beam="1">  1        1 0.36173322E+00 0.94791211E+03</pdfrwt>
<pdfrwt beam="2">  1       -1 0.14698095E-01 0.94791211E+03</pdfrwt>
<totfact> 0.59422293E+01</totfact>
</mgrwt>
</event>
<event>
 4      1 +1.5204000e-02 5.18159600e+02 7.81860800e-03 1.00914500e-01
        1 -1    0    0  501    0 +0.0000000000e+00 +0.0000000000e+00 +2.8779798530e+03 2.8779798530e+03 0.0000000000e+00 0.0000e+00 -1.0000e+00
       -1 -1    0    0    0  501 -0.0000000000e+00 -0.0000000000e+00 -2.3322728300e+01 2.3322728300e+01 0.0000000000e+00 0.0000e+00 1.0000e+00
     -556  1    1    2    0    0 -3.9728449474e+01 -1.1524133162e+02 +2.0473909946e+03 2.0607447195e+03 2.0000000000e+02 0.0000e+00 1.0000e+00
      556  1    1    2    0    0 +3.9728449474e+01 +1.1524133162e+02 +8.0726613006e+02 8.4055786176e+02 2.0000000000e+02 0.0000e+00 -1.0000e+00
<mgrwt>
<rscale>  0 0.51815960E+03</rscale>
<asrwt>0</asrwt>
<pdfrwt beam="1">  1        1 0.44276585E+00 0.51815960E+03</pdfrwt>
<pdfrwt beam="2">  1       -1 0.35881143E-02 0.51815960E+03</pdfrwt>
<totfact> 0.24398485E+02</totfact>
</mgrwt>
</event>
<event>
 4      1 +1.5204000e-02 5.43659300e+02 7.81860800e-03 1.00297200e-01
        1 -1    0    0  501    0 +0.0000000000e+00 +0.0000000000e+00 +8.7988361762e+01 8.7988361762e+01 0.0000000000e+00 0.0000e+00 -1.0000e+00
       -1 -1    0    0    0  501 -0.0000000000e+00 -0.0000000000e+00 -8.3978559970e+02 8.3978559970e+02 0.0000000000e+00 0.0000e+00 1.0000e+00
     -556  1    1    2    0    0 +7.1470083632e+01 -2.9955032310e+00 -8.6418598438e+01 2.2931445670e+02 2.0000000000e+02 0.0000e+00 -1.0000e+00
      556  1    1    2    0    0 -7.1470083632e+01 +2.9955032310e+00 -6.6537863950e+02 6.9845950476e+02 2.0000000000e+02 0.0000e+00 1.0000e+00
<mgrwt>
<rscale>  0 0.54365930E+03</rscale>
<asrwt>0</asrwt>
<pdfrwt beam="1">  1        1 0.13536670E-01 0.54365930E+03</pdfrwt>
<pdfrwt beam="2">  1       -1 0.12919779E+00 0.54365930E+03</pdfrwt>
<totfact> 0.23330970E+02</totfact>
</mgrwt>
</event>
<event>
 4      1 +1.5204000e-02 7.12788700e+02 7.81860800e-03 9.69560800e-02
       -2 -1    0    0    0  501 -0.0000000000e+00 +0.0000000000e+00 +5.7080364026e+02 5.7080364026e+02 0.0000000000e+00 0.0000e+00 1.0000e+00
        2 -1    0    0  501    0 +0.0000000000e+00 -0.0000000000e+00 -2.2252297955e+02 2.2252297955e+02 0.0000000000e+00 0.0000e+00 -1.0000e+00
     -556  1    1    2    0    0 +2.8116537112e+02 -7.8345164317e+01 +1.2659343117e+02 3.7578960537e+02 2.0000000000e+02 0.0000e+00 1.0000e+00
      556  1    1    2    0    0 -2.8116537112e+02 +7.8345164317e+01 +2.2168722954e+02 4.1753701444e+02 2.0000000000e+02 0.0000e+00 -1.0000e+00
<mgrwt>
<rscale>  0 0.71278868E+03</rscale>
<asrwt>0</asrwt>
<pdfrwt beam="2">  1        2 0.34234305E-01 0.71278868E+03</pdfrwt>
<pdfrwt beam="1">  1       -2 0.87815944E-01 0.71278868E+03</pdfrwt>
<totfact> 0.17316737E+02</totfact>
</mgrwt>
</event>
<event>
 4      1 +1.5204000e-02 6.33840600e+02 7.81860800e-03 9.83758300e-02
        1 -1    0    0  501    0 +0.0000000000e+00 +0.0000000000e+00 +5.0610547326e+02 5.0610547326e+02 0.0000000000e+00 0.0000e+00 -1.0000e+00
       -1 -1    0    0    0  501 -0.0000000000e+00 -0.0000000000e+00 -1.9845367405e+02 1.9845367405e+02 0.0000000000e+00 0.0000e+00 1.0000e+00
     -556  1    1    2    0    0 +1.0733122158e+02 -1.0392693570e+02 +3.7084635422e+02 4.4704341794e+02 2.0000000000e+02 0.0000e+00 -1.0000e+00
      556  1    1    2    0    0 -1.0733122158e+02 +1.0392693570e+02 -6.3194555016e+01 2.5751572937e+02 2.0000000000e+02 0.0000e+00 1.0000e+00
<mgrwt>
<rscale>  0 0.63384064E+03</rscale>
<asrwt>0</asrwt>
<pdfrwt beam="1">  1        1 0.77862380E-01 0.63384064E+03</pdfrwt>
<pdfrwt beam="2">  1       -1 0.30531335E-01 0.63384064E+03</pdfrwt>
<totfact> 0.43600746E+02</totfact>
</mgrwt>
</event>
<event>
 4      1 +1.5204000e-02 6.04196300e+02 7.81860800e-03 9.89673800e-02
        2 -1    0    0  501    0 +0.0000000000e+00 +0.0000000000e+00 +3.4898421617e+03 3.4898421617e+03 0.0000000000e+00 0.0000e+00 -1.0000e+00
       -2 -1    0    0    0  501 -0.0000000000e+00 -0.0000000000e+00 -2.6151120478e+01 2.6151120478e+01 0.0000000000e+00 0.0000e+00 1.0000e+00
     -556  1    1    2    0    0 +2.0769482344e+02 +8.5219529401e+01 +1.5608163073e+03 1.5895115768e+03 2.0000000000e+02 0.0000e+00 -1.0000e+00
      556  1    1    2    0    0 -2.0769482344e+02 -8.5219529401e+01 +1.9028747340e+03 1.9264817054e+03 2.0000000000e+02 0.0000e+00 1.0000e+00
<mgrwt>
<rscale>  0 0.60419627E+03</rscale>
<asrwt>0</asrwt>
<pdfrwt beam="1">  1        2 0.53689843E+00 0.60419627E+03</pdfrwt>
<pdfrwt beam="2">  1       -2 0.40232521E-02 0.60419627E+03</pdfrwt>
<totfact> 0.26198904E+02</totfact>
</mgrwt>
</event>
<event>
 4      1 +1.5204000e-02 7.02419300e+02 7.81860800e-03 9.71310400e-02
       -1 -1    0    0    0  501 -0.0000000000e+00 +0.0000000000e+00 +1.2907923459e+02 1.2907923459e+02 0.0000000000e+00 0.0000e+00 1.0000e+00
        1 -1    0    0  501    0 +0.0000000000e+00 -0.0000000000e+00 -9.5560070923e+02 9.5560070923e+02 0.0000000000e+00 0.0000e+00 -1.0000e+00
     -556  1    1    2    0    0 -2.2069743294e+02 -6.6745585679e+01 -6.8155235130e+02 7.4677703344e+02 2.0000000000e+02 0.0000e+00 -1.0000e+00
      556  1    1    2    0    0 +2.2069743294e+02 +6.6745585679e+01 -1.4496912334e+02 3.3790291037e+02 2.0000000000e+02 0.0000e+00 1.0000e+00
<mgrwt>
<rscale>  0 0.70241927E+03</rscale>
<asrwt>0</asrwt>
<pdfrwt beam="2">  1        1 0.14701549E+00 0.70241927E+03</pdfrwt>
<pdfrwt beam="1">  1       -1 0.19858344E-01 0.70241927E+03</pdfrwt>
<totfact> 0.34362763E+02</totfact>
</mgrwt>
</event>
<event>
 4      1 +1.5204000e-02 9.97988500e+02 7.81860800e-03 9.31075400e-02
        1 -1    0    0  501    0 +0.0000000000e+00 +0.0000000000e+00 +4.4633169180e+02 4.4633169180e+02 0.0000000000e+00 0.0000e+00 -1.0000e+00
       -1 -1    0    0    0  501 -0.0000000000e+00 -0.0000000000e+00 -5.5787046653e+02 5.5787046653e+02 0.0000000000e+00 0.0000e+00 1.0000e+00
     -556  1    1    2    0    0 -9.7873463060e+01 +4.4635010720e+02 -6.9552708503e+01 5.0363202066e+02 2.0000000000e+02 0.0000e+00 -1.0000e+00
      556  1    1    2    0    0 +9.7873463060e+01 -4.4635010720e+02 -4.1986066232e+01 5.0057013767e+02 2.0000000000e+02 0.0000e+00 1.0000e+00
<mgrwt>
<rscale>  0 0.99798852E+03</rscale>
<asrwt>0</asrwt>
<pdfrwt beam="1">  1        1 0.68666414E-01 0.99798852E+03</pdfrwt>
<pdfrwt beam="2">  1       -1 0.85826226E-01 0.99798852E+03</pdfrwt>
<totfact> 0.69643538E+01</totfact>
</mgrwt>
</event>
<event>
 4      1 +1.5204000e-02 5.27343200e+02 7.81860800e-03 1.00687800e-01
        3 -1    0    0  501    0 +0.0000000000e+00 +0.0000000000e+00 +5.5856338448e+02 5.5856338448e+02 0.0000000000e+00 0.0000e+00 -1.0000e+00
       -3 -1    0    0    0  501 -0.0000000000e+00 -0.0000000000e+00 -1.2446701568e+02 1.2446701568e+02 0.0000000000e+00 0.0000e+00 1.0000e+00
     -556  1    1    2    0    0 -1.9514509350e+01 -5.8124836619e+00 +4.3802856654e+02 4.8195811659e+02 2.0000000000e+02 0.0000e+00 -1.0000e+00
      556  1    1    2    0    0 +1.9514509350e+01 +5.8124836619e+00 -3.9321977426e+00 2.0107228357e+02 2.0000000000e+02 0.0000e+00 1.0000e+00
<mgrwt>
<rscale>  0 0.52734322E+03</rscale>
<asrwt>0</asrwt>
<pdfrwt beam="1">  1        3 0.85932827E-01 0.52734322E+03</pdfrwt>
<pdfrwt beam="2">  1       -3 0.19148772E-01 0.52734322E+03</pdfrwt>
<totfact> 0.80512554E+01</totfact>
</mgrwt>
</event>
<event>
 4      1 +1.5204000e-02 5.63821300e+02 7.81860800e-03 9.98344500e-02
       -1 -1    0    0    0  501 -0.0000000000e+00 +0.0000000000e+00 +6.5687058072e+01 6.5687058072e+01 0.0000000000e+00 0.0000e+00 1.0000e+00
        1 -1    0    0  501    0 +0.0000000000e+00 -0.0000000000e+00 -1.2098825991e+03 1.2098825991e+03 0.0000000000e+00 0.0000e+00 -1.0000e+00
     -556  1    1    2    0    0 +3.6786123802e+01 +1.4258116050e+02 -8.7385877400e+02 9.0846670998e+02 2.0000000000e+02 0.0000e+00 -1.0000e+00
      556  1    1    2    0    0 -3.6786123802e+01 -1.4258116050e+02 -2.7033676703e+02 3.6710294720e+02 2.0000000000e+02 0.0000e+00 1.0000e+00
<mgrwt>
<rscale>  0 0.56382135E+03</rscale>
<asrwt>0</asrwt>
<pdfrwt beam="2">  1        1 0.18613576E+00 0.56382135E+03</pdfrwt>
<pdfrwt beam="1">  1       -1 0.10105703E-01 0.56382135E+03</pdfrwt>
<totfact> 0.66513794E+02</totfact>
</mgrwt>
</event>
<event>
 4      1 +1.5204000e-02 4.62275600e+02 7.81860800e-03 1.02412300e-01
        1 -1    0    0  501    0 +0.0000000000e+00 +0.0000000000e+00 +1.8053332425e+02 1.8053332425e+02 0.0000000000e+00 0.0000e+00 1.0000e+00
       -1 -1    0    0    0  501 -0.0000000000e+00 -0.0000000000e+00 -2.9592694036e+02 2.9592694036e+02 0.0000000000e+00 0.0000e+00 -1.0000e+00
     -556  1    1    2    0    0 +3.5958492751e+01 -2.6266726634e+00 +5.5794435768e+01 2.1074375832e+02 2.0000000000e+02 0.0000e+00 1.0000e+00
      556  1    1    2    0    0 -3.5958492751e+01 +2.6266726634e+00 -1.7118805187e+02 2.6571650629e+02 2.0000000000e+02 0.0000e+00 -1.0000e+00
<mgrwt>
<rscale>  0 0.46227556E+03</rscale>
<asrwt>0</asrwt>
<pdfrwt beam="1">  1        1 0.27774358E-01 0.46227556E+03</pdfrwt>
<pdfrwt beam="2">  1       -1 0.45527221E-01 0.46227556E+03</pdfrwt>
<totfact> 0.81901201E+02</totfact>
</mgrwt>
</event>
<event>
 4      1 +1.5204000e-02 4.77855900e+02 7.81860800e-03 1.01972600e-01
        2 -1    0    0  501    0 +0.0000000000e+00 +0.0000000000e+00 +2.1804071670e+02 2.1804071670e+02 0.0000000000e+00 0.0000e+00 1.0000e+00
       -2 -1    0    0    0  501 -0.0000000000e+00 -0.0000000000e+00 -2.6181608642e+02 2.6181608642e+02 0.0000000000e+00 0.0000e+00 -1.0000e+00
     -556  1    1    2    0    0 +9.9695235494e+01 -1.5140381163e+01 +6.1636284989e+01 2.3230885207e+02 2.0000000000e+02 0.0000e+00 1.0000e+00
      556  1    1    2    0    0 -9.9695235494e+01 +1.5140381163e+01 -1.0541165470e+02 2.4754795105e+02 2.0000000000e+02 0.0000e+00 -1.0000e+00
<mgrwt>
<rscale>  0 0.47785591E+03</rscale>
<asrwt>0</asrwt>
<pdfrwt beam="1">  1        2 0.33544726E-01 0.47785591E+03</pdfrwt>
<pdfrwt beam="2">  1       -2 0.40279398E-01 0.47785591E+03</pdfrwt>
<totfact> 0.91725656E+02</totfact>
</mgrwt>
</event>
<event>
 4      1 +1.5204000e-02 5.40403200e+02 7.81860800e-03 1.00374000e-01
        2 -1    0    0  501    0 +0.0000000000e+00 +0.0000000000e+00 +7.4520966921e+02 7.4520966921e+02 0.0000000000e+00 0.0000e+00 1.0000e+00
       -2 -1    0    0    0  501 -0.0000000000e+00 -0.0000000000e+00 -9.7970954839e+01 9.7970954839e+01 0.0000000000e+00 0.0000e+00 -1.0000e+00
     -556  1    1    2    0    0 +1.2603425492e+02 -9.2093019591e+01 +1.7856238258e+02 3.1024229587e+02 2.0000000000e+02 0.0000e+00 -1.0000e+00
      556  1    1    2    0    0 -1.2603425492e+02 +9.2093019591e+01 +4.6867633179e+02 5.3293832818e+02 2.0000000000e+02 0.0000e+00 1.0000e+00
<mgrwt>
<rscale>  0 0.54040319E+03</rscale>
<asrwt>0</asrwt>
<pdfrwt beam="1">  1        2 0.11464764E+00 0.54040319E+03</pdfrwt>
<pdfrwt beam="2">  1       -2 0.15072455E-01 0.54040319E+03</pdfrwt>
<totfact> 0.13184132E+03</totfact>
</mgrwt>
</event>
<event>
 4      1 +1.5204000e-02 6.16148600e+02 7.81860800e-03 9.87245800e-02
        1 -1    0    0  501    0 +0.0000000000e+00 +0.0000000000e+00 +1.4636167297e+03 1.4636167297e+03 0.0000000000e+00 0.0000e+00 -1.0000e+00
       -1 -1    0    0    0  501 -0.0000000000e+00 -0.0000000000e+00 -6.4846056122e+01 6.4846056122e+01 0.0000000000e+00 0.0000e+00 1.0000e+00
     -556  1    1    2    0    0 -1.2733667519e+02 -1.6365250793e+02 +4.2862815485e+02 5.1644832009e+02 2.0000000000e+02 0.0000e+00 -1.0000e+00
      556  1    1    2    0    0 +1.2733667519e+02 +1.6365250793e+02 +9.7014251873e+02 1.0120144657e+03 2.0000000000e+02 0.0000e+00 1.0000e+00
<mgrwt>
<rscale>  0 0.61614859E+03</rscale>
<asrwt>0</asrwt>
<pdfrwt beam="1">  1        1 0.22517178E+00 0.61614859E+03</pdfrwt>
<pdfrwt beam="2">  1       -1 0.99763174E-02 0.61614859E+03</pdfrwt>
<totfact> 0.45011495E+02</totfact>
</mgrwt>
</event>
<event>
 4      1 +1.5204000e-02 5.19307200e+02 7.81860800e-03 1.00885900e-01
        3 -1    0    0  501    0 +0.0000000000e+00 +0.0000000000e+00 +8.8776341160e+02 8.8776341160e+02 0.0000000000e+00 0.0000e+00 -1.0000e+00
       -3 -1    0    0    0  501 -0.0000000000e+00 -0.0000000000e+00 -7.5943635171e+01 7.5943635171e+01 0.0000000000e+00 0.0000e+00 1.0000e+00
     -556  1    1    2    0    0 -1.2859243946e+02 -8.5634823353e+01 +2.9533050024e+02 3.8870225473e+02 2.0000000000e+02 0.0000e+00 1.0000e+00
      556  1    1    2    0    0 +1.2859243946e+02 +8.5634823353e+01 +5.1648927619e+02 5.7500479204e+02 2.0000000000e+02 0.0000e+00 -1.0000e+00
<mgrwt>
<rscale>  0 0.51930716E+03</rscale>
<asrwt>0</asrwt>
<pdfrwt beam="1">  1        3 0.13657898E+00 0.51930716E+03</pdfrwt>
<pdfrwt beam="2">  1       -3 0.11683637E-01 0.51930716E+03</pdfrwt>
<totfact> 0.63788920E+01</totfact>
</mgrwt>
</event>
<event>
 4      1 +1.5204000e-02 6.64568100e+02 7.81860800e-03 9.77982100e-02
        2 -1    0    0  501    0 +0.0000000000e+00 +0.0000000000e+00 +8.9194323676e+02 8.9194323676e+02 0.0000000000e+00 0.0000e+00 -1.0000e+00
       -2 -1    0    0    0  501 -0.0000000000e+00 -0.0000000000e+00 -1.2378892294e+02 1.2378892294e+02 0.0000000000e+00 0.0000e+00 1.0000e+00
     -556  1    1    2    0    0 -5.4560015689e+01 -1.6714698041e+02 +8.0320311811e+01 2.7814791184e+02 2.0000000000e+02 0.0000e+00 1.0000e+00
      556  1    1    2    0    0 +5.4560015689e+01 +1.6714698041e+02 +6.8783400201e+02 7.3758424787e+02 2.0000000000e+02 0.0000e+00 -1.0000e+00
<mgrwt>
<rscale>  0 0.66456811E+03</rscale>
<asrwt>0</asrwt>
<pdfrwt beam="1">  1        2 0.13722203E+00 0.66456811E+03</pdfrwt>
<pdfrwt beam="2">  1       -2 0.19044450E-01 0.66456811E+03</pdfrwt>
<totfact> 0.69481444E+02</totfact>
</mgrwt>
</event>
<event>
 4      1 +1.5204000e-02 6.32621800e+02 7.81860800e-03 9.83994600e-02
        2 -1    0    0  501    0 +0.0000000000e+00 +0.0000000000e+00 +1.0060386963e+03 1.0060386963e+03 0.0000000000e+00 0.0000e+00 -1.0000e+00
       -2 -1    0    0    0  501 -0.0000000000e+00 -0.0000000000e+00 -9.9452022230e+01 9.9452022230e+01 0.0000000000e+00 0.0000e+00 1.0000e+00
     -556  1    1    2    0    0 -2.1495958270e+02 +5.7150205009e+00 +2.4792005639e+02 3.8432361106e+02 2.0000000000e+02 0.0000e+00 1.0000e+00
      556  1    1    2    0    0 +2.1495958270e+02 -5.7150205009e+00 +6.5866661768e+02 7.2116710747e+02 2.0000000000e+02 0.0000e+00 -1.0000e+00
<mgrwt>
<rscale>  0 0.63262179E+03</rscale>
<asrwt>0</asrwt>
<pdfrwt beam="1">  1        2 0.15477518E+00 0.63262179E+03</pdfrwt>
<pdfrwt beam="2">  1       -2 0.15300312E-01 0.63262179E+03</pdfrwt>
<totfact> 0.85244571E+02</totfact>
</mgrwt>
</event>
<event>
 4      1 +1.5204000e-02 5.32634700e+02 7.81860800e-03 1.00559500e-01
        1 -1    0    0  501    0 +0.0000000000e+00 +0.0000000000e+00 +1.7744755559e+03 1.7744755559e+03 0.0000000000e+00 0.0000e+00 -1.0000e+00
       -1 -1    0    0    0  501 -0.0000000000e+00 -0.0000000000e+00 -3.9969519660e+01 3.9969519660e+01 0.0000000000e+00 0.0000e+00 1.0000e+00
     -556  1    1    2    0    0 -9.9639505436e+01 -1.4488523776e+02 +8.7500053724e+02 9.1462872431e+02 2.0000000000e+02 0.0000e+00 1.0000e+00
      556  1    1    2    0    0 +9.9639505436e+01 +1.4488523776e+02 +8.5950549902e+02 8.9981635127e+02 2.0000000000e+02 0.0000e+00 -1.0000e+00
<mgrwt>
<rscale>  0 0.53263472E+03</rscale>
<asrwt>0</asrwt>
<pdfrwt beam="1">  1        1 0.27299618E+00 0.53263472E+03</pdfrwt>
<pdfrwt beam="2">  1       -1 0.61491582E-02 0.53263472E+03</pdfrwt>
<totfact> 0.59420712E+02</totfact>
</mgrwt>
</event>
<event>
 4      1 +1.5204000e-02 6.88242500e+02 7.81860800e-03 9.73755300e-02
        1 -1    0    0  501    0 +0.0000000000e+00 +0.0000000000e+00 +1.1397685281e+03 1.1397685281e+03 0.0000000000e+00 0.0000e+00 -1.0000e+00
       -1 -1    0    0    0  501 -0.0000000000e+00 -0.0000000000e+00 -1.0389779666e+02 1.0389779666e+02 0.0000000000e+00 0.0000e+00 1.0000e+00
     -556  1    1    2    0    0 -2.2947776471e+02 -8.0898805419e+00 +2.2828251882e+02 3.8057640371e+02 2.0000000000e+02 0.0000e+00 1.0000e+00
      556  1    1    2    0    0 +2.2947776471e+02 +8.0898805419e+00 +8.0758821261e+02 8.6308992104e+02 2.0000000000e+02 0.0000e+00 -1.0000e+00
<mgrwt>
<rscale>  0 0.68824251E+03</rscale>
<asrwt>0</asrwt>
<pdfrwt beam="1">  1        1 0.17534900E+00 0.68824251E+03</pdfrwt>
<pdfrwt beam="2">  1       -1 0.15984277E-01 0.68824251E+03</pdfrwt>
<totfact> 0.35622177E+02</totfact>
</mgrwt>
</event>
<event>
 4      1 +1.5204000e-02 5.24244300e+02 7.81860800e-03 1.00763800e-01
       -1 -1    0    0    0  501 -0.0000000000e+00 +0.0000000000e+00 +5.1898708562e+01 5.1898708562e+01 0.0000000000e+00 0.0000e+00 1.0000e+00
        1 -1    0    0  501    0 +0.0000000000e+00 -0.0000000000e+00 -1.3238871497e+03 1.3238871497e+03 0.0000000000e+00 0.0000e+00 -1.0000e+00
     -556  1    1    2    0    0 +3.0625638725e+01 +2.2679029535e+01 -2.0273653414e+02 2.8732276346e+02 2.0000000000e+02 0.0000e+00 1.0000e+00
      556  1    1    2    0    0 -3.0625638725e+01 -2.2679029535e+01 -1.0692519070e+03 1.0884630948e+03 2.0000000000e+02 0.0000e+00 -1.0000e+00
<mgrwt>
<rscale>  0 0.52424435E+03</rscale>
<asrwt>0</asrwt>
<pdfrwt beam="2">  1        1 0.20367498E+00 0.52424435E+03</pdfrwt>
<pdfrwt beam="1">  1       -1 0.79844153E-02 0.52424435E+03</pdfrwt>
<totfact> 0.80073765E+02</totfact>
</mgrwt>
</event>
<event>
 4      1 +1.5204000e-02 1.29521000e+03 7.81860800e-03 9.03337200e-02
        1 -1    0    0  501    0 +0.0000000000e+00 +0.0000000000e+00 +1.3990227251e+03 1.3990227251e+03 0.0000000000e+00 0.0000e+00 -1.0000e+00
       -1 -1    0    0    0  501 -0.0000000000e+00 -0.0000000000e+00 -2.9977506257e+02 2.9977506257e+02 0.0000000000e+00 0.0000e+00 1.0000e+00
     -556  1    1    2    0    0 -3.6001220152e+02 +5.5481585158e+01 -1.0184050933e+02 4.2785334038e+02 2.0000000000e+02 0.0000e+00 1.0000e+00
      556  1    1    2    0    0 +3.6001220152e+02 -5.5481585158e+01 +1.2010881719e+03 1.2709444473e+03 2.0000000000e+02 0.0000e+00 -1.0000e+00
<mgrwt>
<rscale>  0 0.12952098E+04</rscale>
<asrwt>0</asrwt>
<pdfrwt beam="1">  1        1 0.21523426E+00 0.12952098E+04</pdfrwt>
<pdfrwt beam="2">  1       -1 0.46119241E-01 0.12952098E+04</pdfrwt>
<totfact> 0.35365751E+01</totfact>
</mgrwt>
</event>
<event>
 4      1 +1.5204000e-02 7.23726400e+02 7.81860800e-03 9.67749600e-02
       -2 -1    0    0    0  501 -0.0000000000e+00 +0.0000000000e+00 +7.4350616395e+01 7.4350616395e+01 0.0000000000e+00 0.0000e+00 -1.0000e+00
        2 -1    0    0  501    0 +0.0000000000e+00 -0.0000000000e+00 -1.7611822560e+03 1.7611822560e+03 0.0000000000e+00 0.0000e+00 1.0000e+00
     -556  1    1    2    0    0 -1.8372810160e+00 +3.0150841654e+02 -8.2856526162e+02 9.0411895987e+02 2.0000000000e+02 0.0000e+00 -1.0000e+00
      556  1    1    2    0    0 +1.8372810160e+00 -3.0150841654e+02 -8.5826637794e+02 9.3141391247e+02 2.0000000000e+02 0.0000e+00 1.0000e+00
<mgrwt>
<rscale>  0 0.72372643E+03</rscale>
<asrwt>0</asrwt>
<pdfrwt beam="2">  1        2 0.27095109E+00 0.72372643E+03</pdfrwt>
<pdfrwt beam="1">  1       -2 0.11438557E-01 0.72372643E+03</pdfrwt>
<totfact> 0.50919970E+02</totfact>
</mgrwt>
</event>
<event>
 4      1 +1.5204000e-02 6.46486600e+02 7.81860800e-03 9.81339400e-02
       -1 -1    0    0    0  501 -0.0000000000e+00 +0.0000000000e+00 +7.0745910481e+01 7.0745910481e+01 0.0000000000e+00 0.0000e+00 1.0000e+00
        1 -1    0    0  501    0 +0.0000000000e+00 -0.0000000000e+00 -1.4769224277e+03 1.4769224277e+03 0.0000000000e+00 0.0000e+00 -1.0000e+00
     -556  1    1    2    0    0 +1.9778633528e+02 +1.0080123135e+02 -4.0788275974e+02 5.0561711637e+02 2.0000000000e+02 0.0000e+00 1.0000e+00
      556  1    1    2    0    0 -1.9778633528e+02 -1.0080123135e+02 -9.9829375744e+02 1.0420512218e+03 2.0000000000e+02 0.0000e+00 -1.0000e+00
<mgrwt>
<rscale>  0 0.64648657E+03</rscale>
<asrwt>0</asrwt>
<pdfrwt beam="2">  1        1 0.22721885E+00 0.64648657E+03</pdfrwt>
<pdfrwt beam="1">  1       -1 0.10883985E-01 0.64648657E+03</pdfrwt>
<totfact> 0.38326841E+02</totfact>
</mgrwt>
</event>
<event>
 4      1 +1.5204000e-02 7.80881900e+02 7.81860800e-03 9.58811000e-02
       -2 -1    0    0    0  501 -0.0000000000e+00 +0.0000000000e+00 +1.4074343410e+02 1.4074343410e+02 0.0000000000e+00 0.0000e+00 1.0000e+00
        2 -1    0    0  501    0 +0.0000000000e+00 -0.0000000000e+00 -1.0831350450e+03 1.0831350450e+03 0.0000000000e+00 0.0000e+00 -1.0000e+00
     -556  1    1    2    0    0 -2.1009698913e+02 -2.4974033111e+02 -3.5047107340e+02 5.1898068472e+02 2.0000000000e+02 0.0000e+00 1.0000e+00
      556  1    1    2    0    0 +2.1009698913e+02 +2.4974033111e+02 -5.9192053754e+02 7.0489779443e+02 2.0000000000e+02 0.0000e+00 -1.0000e+00
<mgrwt>
<rscale>  0 0.78088193E+03</rscale>
<asrwt>0</asrwt>
<pdfrwt beam="2">  1        2 0.16663617E+00 0.78088193E+03</pdfrwt>
<pdfrwt beam="1">  1       -2 0.21652835E-01 0.78088193E+03</pdfrwt>
<totfact> 0.41630677E+02</totfact>
</mgrwt>
</event>
<event>
 4      1 +1.5204000e-02 5.53779100e+02 7.81860800e-03 1.00062300e-01
        1 -1    0    0  501    0 +0.0000000000e+00 +0.0000000000e+00 +1.5963623549e+02 1.5963623549e+02 0.0000000000e+00 0.0000e+00 -1.0000e+00
       -1 -1    0    0    0  501 -0.0000000000e+00 -0.0000000000e+00 -4.8026585869e+02 4.8026585869e+02 0.0000000000e+00 0.0000e+00 1.0000e+00
     -556  1    1    2    0    0 +1.4125529994e+02 +4.1849122043e+01 -3.0166371528e+02 3.9077539059e+02 2.0000000000e+02 0.0000e+00 1.0000e+00
      556  1    1    2    0    0 -1.4125529994e+02 -4.1849122043e+01 -1.8965907917e+01 2.4912670359e+02 2.0000000000e+02 0.0000e+00 -1.0000e+00
<mgrwt>
<rscale>  0 0.55377914E+03</rscale>
<asrwt>0</asrwt>
<pdfrwt beam="1">  1        1 0.24559421E-01 0.55377914E+03</pdfrwt>
<pdfrwt beam="2">  1       -1 0.73887055E-01 0.55377914E+03</pdfrwt>
<totfact> 0.37406747E+02</totfact>
</mgrwt>
</event>
<event>
 4      1 +1.5204000e-02 5.53774300e+02 7.81860800e-03 1.00062400e-01
        2 -1    0    0  501    0 +0.0000000000e+00 +0.0000000000e+00 +6.4407499537e+01 6.4407499537e+01 0.0000000000e+00 0.0000e+00 -1.0000e+00
       -2 -1    0    0    0  501 -0.0000000000e+00 -0.0000000000e+00 -1.1903349069e+03 1.1903349069e+03 0.0000000000e+00 0.0000e+00 1.0000e+00
     -556  1    1    2    0    0 -8.8159899648e+01 +1.6810594785e+02 -5.0588002376e+02 5.7614787690e+02 2.0000000000e+02 0.0000e+00 1.0000e+00
      556  1    1    2    0    0 +8.8159899648e+01 -1.6810594785e+02 -6.2004738356e+02 6.7859452950e+02 2.0000000000e+02 0.0000e+00 -1.0000e+00
<mgrwt>
<rscale>  0 0.55377430E+03</rscale>
<asrwt>0</asrwt>
<pdfrwt beam="1">  1        2 0.99088468E-02 0.55377430E+03</pdfrwt>
<pdfrwt beam="2">  1       -2 0.18312843E+00 0.55377430E+03</pdfrwt>
<totfact> 0.11877026E+02</totfact>
</mgrwt>
</event>
<event>
 4      1 +1.5204000e-02 7.26268200e+02 7.81860800e-03 9.67333500e-02
       -1 -1    0    0    0  501 -0.0000000000e+00 +0.0000000000e+00 +2.5033068456e+02 2.5033068456e+02 0.0000000000e+00 0.0000e+00 1.0000e+00
        1 -1    0    0  501    0 +0.0000000000e+00 -0.0000000000e+00 -5.2676877287e+02 5.2676877287e+02 0.0000000000e+00 0.0000e+00 -1.0000e+00
     -556  1    1    2    0    0 -2.6781970979e+02 +6.3521451851e+00 -2.8991112197e+02 4.4251124883e+02 2.0000000000e+02 0.0000e+00 -1.0000e+00
      556  1    1    2    0    0 +2.6781970979e+02 -6.3521451851e+00 +1.3473033671e+01 3.3458820860e+02 2.0000000000e+02 0.0000e+00 1.0000e+00
<mgrwt>
<rscale>  0 0.72626824E+03</rscale>
<asrwt>0</asrwt>
<pdfrwt beam="2">  1        1 0.81041349E-01 0.72626824E+03</pdfrwt>
<pdfrwt beam="1">  1       -1 0.38512413E-01 0.72626824E+03</pdfrwt>
<totfact> 0.27234014E+02</totfact>
</mgrwt>
</event>
<event>
 4      1 +1.5204000e-02 4.38023700e+02 7.81860800e-03 1.03135500e-01
        2 -1    0    0  501    0 +0.0000000000e+00 +0.0000000000e+00 +1.4131044811e+03 1.4131044811e+03 0.0000000000e+00 0.0000e+00 -1.0000e+00
       -2 -1    0    0    0  501 -0.0000000000e+00 -0.0000000000e+00 -3.3943844294e+01 3.3943844294e+01 0.0000000000e+00 0.0000e+00 1.0000e+00
     -556  1    1    2    0    0 +1.5204884717e+01 +1.7706815400e+01 +4.0498312667e+02 4.5227873343e+02 2.0000000000e+02 0.0000e+00 1.0000e+00
      556  1    1    2    0    0 -1.5204884717e+01 -1.7706815400e+01 +9.7417751017e+02 9.9476959200e+02 2.0000000000e+02 0.0000e+00 -1.0000e+00
<mgrwt>
<rscale>  0 0.43802374E+03</rscale>
<asrwt>0</asrwt>
<pdfrwt beam="1">  1        2 0.21740064E+00 0.43802374E+03</pdfrwt>
<pdfrwt beam="2">  1       -2 0.52221310E-02 0.43802374E+03</pdfrwt>
<totfact> 0.27840721E+03</totfact>
</mgrwt>
</event>
<event>
 4      1 +1.5204000e-02 5.59772300e+02 7.81860800e-03 9.99257000e-02
        2 -1    0    0  501    0 +0.0000000000e+00 +0.0000000000e+00 +4.3268438036e+02 4.3268438036e+02 0.0000000000e+00 0.0000e+00 -1.0000e+00
       -2 -1    0    0    0  501 -0.0000000000e+00 -0.0000000000e+00 -1.8104712585e+02 1.8104712585e+02 0.0000000000e+00 0.0000e+00 1.0000e+00
     -556  1    1    2    0    0 +1.6315146808e+02 -9.3187885612e+01 +1.8620878850e+02 3.3162644116e+02 2.0000000000e+02 0.0000e+00 1.0000e+00
      556  1    1    2    0    0 -1.6315146808e+02 +9.3187885612e+01 +6.5428466009e+01 2.8210506505e+02 2.0000000000e+02 0.0000e+00 -1.0000e+00
<mgrwt>
<rscale>  0 0.55977232E+03</rscale>
<asrwt>0</asrwt>
<pdfrwt beam="1">  1        2 0.66566827E-01 0.55977232E+03</pdfrwt>
<pdfrwt beam="2">  1       -2 0.27853404E-01 0.55977232E+03</pdfrwt>
<totfact> 0.85910559E+02</totfact>
</mgrwt>
</event>
<event>
 4      1 +1.5204000e-02 6.10222500e+02 7.81860800e-03 9.88442200e-02
        2 -1    0    0  501    0 +0.0000000000e+00 +0.0000000000e+00 +7.1065373290e+02 7.1065373290e+02 0.0000000000e+00 0.0000e+00 -1.0000e+00
       -2 -1    0    0    0  501 -0.0000000000e+00 -0.0000000000e+00 -1.3099609095e+02 1.3099609095e+02 0.0000000000e+00 0.0000e+00 1.0000e+00
     -556  1    1    2    0    0 -1.9904500442e+02 -6.6757779330e+01 +1.5885556539e+02 3.3062154427e+02 2.0000000000e+02 0.0000e+00 1.0000e+00
      556  1    1    2    0    0 +1.9904500442e+02 +6.6757779330e+01 +4.2080207657e+02 5.1102827958e+02 2.0000000000e+02 0.0000e+00 -1.0000e+00
<mgrwt>
<rscale>  0 0.61022245E+03</rscale>
<asrwt>0</asrwt>
<pdfrwt beam="1">  1        2 0.10933134E+00 0.61022245E+03</pdfrwt>
<pdfrwt beam="2">  1       -2 0.20153245E-01 0.61022245E+03</pdfrwt>
<totfact> 0.85056867E+02</totfact>
</mgrwt>
</event>
<event>
 4      1 +1.5204000e-02 1.28291100e+03 7.81860800e-03 9.04322800e-02
       -2 -1    0    0    0  501 -0.0000000000e+00 +0.0000000000e+00 +1.1076938224e+03 1.1076938224e+03 0.0000000000e+00 0.0000e+00 1.0000e+00
        2 -1    0    0  501    0 +0.0000000000e+00 -0.0000000000e+00 -3.7146095414e+02 3.7146095414e+02 0.0000000000e+00 0.0000e+00 -1.0000e+00
     -556  1    1    2    0    0 -1.2547285366e+02 -4.0265375848e+02 -1.3917827799e+02 4.8707707736e+02 2.0000000000e+02 0.0000e+00 -1.0000e+00
      556  1    1    2    0    0 +1.2547285366e+02 +4.0265375848e+02 +8.7541114626e+02 9.9207769918e+02 2.0000000000e+02 0.0000e+00 1.0000e+00
<mgrwt>
<rscale>  0 0.12829108E+04</rscale>
<asrwt>0</asrwt>
<pdfrwt beam="2">  1        2 0.57147839E-01 0.12829108E+04</pdfrwt>
<pdfrwt beam="1">  1       -2 0.17041443E+00 0.12829108E+04</pdfrwt>
<totfact> 0.17934170E+01</totfact>
</mgrwt>
</event>
<event>
 4      1 +1.5204000e-02 4.73285000e+02 7.81860800e-03 1.02099700e-01
        1 -1    0    0  501    0 +0.0000000000e+00 +0.0000000000e+00 +1.5776540581e+03 1.5776540581e+03 0.0000000000e+00 0.0000e+00 -1.0000e+00
       -1 -1    0    0    0  501 -0.0000000000e+00 -0.0000000000e+00 -3.5495537332e+01 3.5495537332e+01 0.0000000000e+00 0.0000e+00 1.0000e+00
     -556  1    1    2    0    0 +8.6803453920e+01 -7.8282455600e+01 +6.0631880145e+02 6.4906507490e+02 2.0000000000e+02 0.0000e+00 1.0000e+00
      556  1    1    2    0    0 -8.6803453920e+01 +7.8282455600e+01 +9.3583971928e+02 9.6408452049e+02 2.0000000000e+02 0.0000e+00 -1.0000e+00
<mgrwt>
<rscale>  0 0.47328502E+03</rscale>
<asrwt>0</asrwt>
<pdfrwt beam="1">  1        1 0.24271595E+00 0.47328502E+03</pdfrwt>
<pdfrwt beam="2">  1       -1 0.54608531E-02 0.47328502E+03</pdfrwt>
<totfact> 0.96777693E+02</totfact>
</mgrwt>
</event>
<event>
 4      1 +1.5204000e-02 6.15876100e+02 7.81860800e-03 9.87300500e-02
        1 -1    0    0  501    0 +0.0000000000e+00 +0.0000000000e+00 +1.4343918859e+02 1.4343918859e+02 0.0000000000e+00 0.0000e+00 -1.0000e+00
       -1 -1    0    0    0  501 -0.0000000000e+00 -0.0000000000e+00 -6.6108740780e+02 6.6108740780e+02 0.0000000000e+00 0.0000e+00 1.0000e+00
     -556  1    1    2    0    0 +1.6523687303e+02 +4.7930004666e+01 -5.1349239452e+01 2.6876989033e+02 2.0000000000e+02 0.0000e+00 -1.0000e+00
      556  1    1    2    0    0 -1.6523687303e+02 -4.7930004666e+01 -4.6629897976e+02 5.3575670605e+02 2.0000000000e+02 0.0000e+00 1.0000e+00
<mgrwt>
<rscale>  0 0.61587610E+03</rscale>
<asrwt>0</asrwt>
<pdfrwt beam="1">  1        1 0.22067567E-01 0.61587610E+03</pdfrwt>
<pdfrwt beam="2">  1       -1 0.10170576E+00 0.61587610E+03</pdfrwt>
<totfact> 0.21476516E+02</totfact>
</mgrwt>
</event>
<event>
 4      1 +1.5204000e-02 4.33568200e+02 7.81860800e-03 1.03273900e-01
       -1 -1    0    0    0  501 -0.0000000000e+00 +0.0000000000e+00 +7.2136778603e+01 7.2136778603e+01 0.0000000000e+00 0.0000e+00 -1.0000e+00
        1 -1    0    0  501    0 +0.0000000000e+00 -0.0000000000e+00 -6.5147551148e+02 6.5147551148e+02 0.0000000000e+00 0.0000e+00 1.0000e+00
     -556  1    1    2    0    0 -7.4418269090e+01 +2.8459107621e+01 -3.3213293318e+02 3.9580334118e+02 2.0000000000e+02 0.0000e+00 1.0000e+00
      556  1    1    2    0    0 +7.4418269090e+01 -2.8459107621e+01 -2.4720579969e+02 3.2780894890e+02 2.0000000000e+02 0.0000e+00 -1.0000e+00
<mgrwt>
<rscale>  0 0.43356819E+03</rscale>
<asrwt>0</asrwt>
<pdfrwt beam="2">  1        1 0.10022700E+00 0.43356819E+03</pdfrwt>
<pdfrwt beam="1">  1       -1 0.11097966E-01 0.43356819E+03</pdfrwt>
<totfact> 0.16251745E+03</totfact>
</mgrwt>
</event>
<event>
 4      1 +1.5204000e-02 5.83897800e+02 7.81860800e-03 9.93938800e-02
        2 -1    0    0  501    0 +0.0000000000e+00 +0.0000000000e+00 +2.4063117572e+03 2.4063117572e+03 0.0000000000e+00 0.0000e+00 1.0000e+00
       -2 -1    0    0    0  501 -0.0000000000e+00 -0.0000000000e+00 -3.5421085616e+01 3.5421085616e+01 0.0000000000e+00 0.0000e+00 -1.0000e+00
     -556  1    1    2    0    0 -1.7135574732e+02 -1.0313038556e+02 +8.8286506435e+02 9.2706493322e+02 2.0000000000e+02 0.0000e+00 1.0000e+00
      556  1    1    2    0    0 +1.7135574732e+02 +1.0313038556e+02 +1.4880256072e+03 1.5146679096e+03 2.0000000000e+02 0.0000e+00 -1.0000e+00
<mgrwt>
<rscale>  0 0.58389785E+03</rscale>
<asrwt>0</asrwt>
<pdfrwt beam="1">  1        2 0.37020168E+00 0.58389785E+03</pdfrwt>
<pdfrwt beam="2">  1       -2 0.54493997E-02 0.58389785E+03</pdfrwt>
<totfact> 0.74640158E+02</totfact>
</mgrwt>
</event>
<event>
 4      1 +1.5204000e-02 1.14027800e+03 7.81860800e-03 9.16680000e-02
        2 -1    0    0  501    0 +0.0000000000e+00 +0.0000000000e+00 +2.2514717091e+03 2.2514717091e+03 0.0000000000e+00 0.0000e+00 -1.0000e+00
       -2 -1    0    0    0  501 -0.0000000000e+00 -0.0000000000e+00 -1.4437594127e+02 1.4437594127e+02 0.0000000000e+00 0.0000e+00 1.0000e+00
     -556  1    1    2    0    0 -1.8939663720e+02 -1.5662921671e+02 +2.0494259107e+03 2.0737768349e+03 2.0000000000e+02 0.0000e+00 -1.0000e+00
      556  1    1    2    0    0 +1.8939663720e+02 +1.5662921671e+02 +5.7669857098e+01 3.2207081539e+02 2.0000000000e+02 0.0000e+00 1.0000e+00
<mgrwt>
<rscale>  0 0.11402778E+04</rscale>
<asrwt>0</asrwt>
<pdfrwt beam="1">  1        2 0.34638024E+00 0.11402778E+04</pdfrwt>
<pdfrwt beam="2">  1       -2 0.22211685E-01 0.11402778E+04</pdfrwt>
<totfact> 0.85281127E+01</totfact>
</mgrwt>
</event>
<event>
 4      1 +1.5204000e-02 6.88133900e+02 7.81860800e-03 9.73774300e-02
       -2 -1    0    0    0  501 -0.0000000000e+00 +0.0000000000e+00 +2.1191179881e+02 2.1191179881e+02 0.0000000000e+00 0.0000e+00 1.0000e+00
        2 -1    0    0  501    0 +0.0000000000e+00 -0.0000000000e+00 -5.5863831310e+02 5.5863831310e+02 0.0000000000e+00 0.0000e+00 -1.0000e+00
     -556  1    1    2    0    0 -1.0057371439e+01 -2.5288034657e+02 -3.0741975520e+02 4.4559682033e+02 2.0000000000e+02 0.0000e+00 -1.0000e+00
      556  1    1    2    0    0 +1.0057371439e+01 +2.5288034657e+02 -3.9306759093e+01 3.2495329158e+02 2.0000000000e+02 0.0000e+00 1.0000e+00
<mgrwt>
<rscale>  0 0.68813385E+03</rscale>
<asrwt>0</asrwt>
<pdfrwt beam="2">  1        2 0.85944357E-01 0.68813385E+03</pdfrwt>
<pdfrwt beam="1">  1       -2 0.32601815E-01 0.68813385E+03</pdfrwt>
<totfact> 0.47705480E+02</totfact>
</mgrwt>
</event>
<event>
 4      1 +1.5204000e-02 5.46841600e+02 7.81860800e-03 1.00222800e-01
        1 -1    0    0  501    0 +0.0000000000e+00 +0.0000000000e+00 +2.3245015813e+02 2.3245015813e+02 0.0000000000e+00 0.0000e+00 -1.0000e+00
       -1 -1    0    0    0  501 -0.0000000000e+00 -0.0000000000e+00 -3.2161274758e+02 3.2161274758e+02 0.0000000000e+00 0.0000e+00 1.0000e+00
     -556  1    1    2    0    0 +1.6114514915e+02 +5.0210681645e+01 -1.2481067922e+02 2.8994236892e+02 2.0000000000e+02 0.0000e+00 1.0000e+00
      556  1    1    2    0    0 -1.6114514915e+02 -5.0210681645e+01 +3.5648089768e+01 2.6412053678e+02 2.0000000000e+02 0.0000e+00 -1.0000e+00
<mgrwt>
<rscale>  0 0.54684160E+03</rscale>
<asrwt>0</asrwt>
<pdfrwt beam="1">  1        1 0.35761563E-01 0.54684160E+03</pdfrwt>
<pdfrwt beam="2">  1       -1 0.49478884E-01 0.54684160E+03</pdfrwt>
<totfact> 0.50626215E+02</totfact>
</mgrwt>
</event>
<event>
 4      1 +1.5204000e-02 7.07011600e+02 7.81860800e-03 9.70531600e-02
        2 -1    0    0  501    0 +0.0000000000e+00 +0.0000000000e+00 +5.2847877391e+02 5.2847877391e+02 0.0000000000e+00 0.0000e+00 -1.0000e+00
       -2 -1    0    0    0  501 -0.0000000000e+00 -0.0000000000e+00 -2.3646430549e+02 2.3646430549e+02 0.0000000000e+00 0.0000e+00 1.0000e+00
     -556  1    1    2    0    0 +1.4394154319e+01 -5.3351497539e+01 -1.6364799515e+02 2.6426168902e+02 2.0000000000e+02 0.0000e+00 1.0000e+00
      556  1    1    2    0    0 -1.4394154319e+01 +5.3351497539e+01 +4.5566246356e+02 5.0068139038e+02 2.0000000000e+02 0.0000e+00 -1.0000e+00
<mgrwt>
<rscale>  0 0.70701164E+03</rscale>
<asrwt>0</asrwt>
<pdfrwt beam="1">  1        2 0.81304427E-01 0.70701164E+03</pdfrwt>
<pdfrwt beam="2">  1       -2 0.36379124E-01 0.70701164E+03</pdfrwt>
<totfact> 0.41344533E+02</totfact>
</mgrwt>
</event>
<event>
 4      1 +1.5204000e-02 6.51509900e+02 7.81860800e-03 9.80395000e-02
        2 -1    0    0  501    0 +0.0000000000e+00 +0.0000000000e+00 +4.3379762026e+02 4.3379762026e+02 0.0000000000e+00 0.0000e+00 -1.0000e+00
       -2 -1    0    0    0  501 -0.0000000000e+00 -0.0000000000e+00 -2.4462161572e+02 2.4462161572e+02 0.0000000000e+00 0.0000e+00 1.0000e+00
     -556  1    1    2    0    0 +1.6957085039e+01 +2.1497270549e+02 -5.1251944224e+01 2.9854240675e+02 2.0000000000e+02 0.0000e+00 1.0000e+00
      556  1    1    2    0    0 -1.6957085039e+01 -2.1497270549e+02 +2.4042794877e+02 3.7987682923e+02 2.0000000000e+02 0.0000e+00 -1.0000e+00
<mgrwt>
<rscale>  0 0.65150986E+03</rscale>
<asrwt>0</asrwt>
<pdfrwt beam="1">  1        2 0.66738095E-01 0.65150986E+03</pdfrwt>
<pdfrwt beam="2">  1       -2 0.37634095E-01 0.65150986E+03</pdfrwt>
<totfact> 0.48680155E+02</totfact>
</mgrwt>
</event>
<event>
 4      1 +1.5204000e-02 6.05538400e+02 7.81860800e-03 9.89398200e-02
       -2 -1    0    0    0  501 -0.0000000000e+00 +0.0000000000e+00 +7.3372093674e+01 7.3372093674e+01 0.0000000000e+00 0.0000e+00 1.0000e+00
        2 -1    0    0  501    0 +0.0000000000e+00 -0.0000000000e+00 -1.2493740431e+03 1.2493740431e+03 0.0000000000e+00 0.0000e+00 -1.0000e+00
     -556  1    1    2    0    0 +7.3102705938e+01 +2.1274741666e+02 -6.5924501782e+02 7.2471336571e+02 2.0000000000e+02 0.0000e+00 -1.0000e+00
      556  1    1    2    0    0 -7.3102705938e+01 -2.1274741666e+02 -5.1675693163e+02 5.9803277109e+02 2.0000000000e+02 0.0000e+00 1.0000e+00
<mgrwt>
<rscale>  0 0.60553840E+03</rscale>
<asrwt>0</asrwt>
<pdfrwt beam="2">  1        2 0.19221139E+00 0.60553840E+03</pdfrwt>
<pdfrwt beam="1">  1       -2 0.11288014E-01 0.60553840E+03</pdfrwt>
<totfact> 0.10092544E+03</totfact>
</mgrwt>
</event>
<event>
 4      1 +1.5204000e-02 5.34090600e+02 7.81860800e-03 1.00524500e-01
        2 -1    0    0  501    0 +0.0000000000e+00 +0.0000000000e+00 +7.4226848256e+01 7.4226848256e+01 0.0000000000e+00 0.0000e+00 -1.0000e+00
       -2 -1    0    0    0  501 -0.0000000000e+00 -0.0000000000e+00 -9.6074673585e+02 9.6074673585e+02 0.0000000000e+00 0.0000e+00 1.0000e+00
     -556  1    1    2    0    0 -5.9376923150e+01 +1.0405191094e+02 -1.9089022166e+02 3.0131627221e+02 2.0000000000e+02 0.0000e+00 -1.0000e+00
      556  1    1    2    0    0 +5.9376923150e+01 -1.0405191094e+02 -6.9562966594e+02 7.3365731190e+02 2.0000000000e+02 0.0000e+00 1.0000e+00
<mgrwt>
<rscale>  0 0.53409064E+03</rscale>
<asrwt>0</asrwt>
<pdfrwt beam="1">  1        2 0.11419515E-01 0.53409064E+03</pdfrwt>
<pdfrwt beam="2">  1       -2 0.14780719E+00 0.53409064E+03</pdfrwt>
<totfact> 0.17809244E+02</totfact>
</mgrwt>
</event>
<event>
 4      1 +1.5204000e-02 6.53026000e+02 7.81860800e-03 9.80111800e-02
       -1 -1    0    0    0  501 -0.0000000000e+00 +0.0000000000e+00 +9.1976017690e+01 9.1976017690e+01 0.0000000000e+00 0.0000e+00 1.0000e+00
        1 -1    0    0  501    0 +0.0000000000e+00 -0.0000000000e+00 -1.1591144035e+03 1.1591144035e+03 0.0000000000e+00 0.0000e+00 -1.0000e+00
     -556  1    1    2    0    0 -1.4545303848e+02 -2.0502723059e+02 -6.4557555829e+02 7.2108290311e+02 2.0000000000e+02 0.0000e+00 -1.0000e+00
      556  1    1    2    0    0 +1.4545303848e+02 +2.0502723059e+02 -4.2156282756e+02 5.3000751812e+02 2.0000000000e+02 0.0000e+00 1.0000e+00
<mgrwt>
<rscale>  0 0.65302596E+03</rscale>
<asrwt>0</asrwt>
<pdfrwt beam="2">  1        1 0.17832530E+00 0.65302596E+03</pdfrwt>
<pdfrwt beam="1">  1       -1 0.14150156E-01 0.65302596E+03</pdfrwt>
<totfact> 0.42107161E+02</totfact>
</mgrwt>
</event>
<event>
 4      1 +1.5204000e-02 7.82102300e+02 7.81860800e-03 9.58629100e-02
       -1 -1    0    0    0  501 -0.0000000000e+00 +0.0000000000e+00 +3.3461131886e+02 3.3461131886e+02 0.0000000000e+00 0.0000e+00 1.0000e+00
        1 -1    0    0  501    0 +0.0000000000e+00 -0.0000000000e+00 -4.5701084719e+02 4.5701084719e+02 0.0000000000e+00 0.0000e+00 -1.0000e+00
     -556  1    1    2    0    0 -1.9395282886e+02 -2.2301614102e+02 +1.0064369267e+02 3.7078707078e+02 2.0000000000e+02 0.0000e+00 1.0000e+00
      556  1    1    2    0    0 +1.9395282886e+02 +2.2301614102e+02 -2.2304322100e+02 4.2083509528e+02 2.0000000000e+02 0.0000e+00 -1.0000e+00
<mgrwt>
<rscale>  0 0.78210230E+03</rscale>
<asrwt>0</asrwt>
<pdfrwt beam="2">  1        1 0.70309361E-01 0.78210230E+03</pdfrwt>
<pdfrwt beam="1">  1       -1 0.51478664E-01 0.78210230E+03</pdfrwt>
<totfact> 0.19266150E+02</totfact>
</mgrwt>
</event>
<event>
 4      1 +1.5204000e-02 4.75530700e+02 7.81860800e-03 1.02037100e-01
       -2 -1    0    0    0  501 -0.0000000000e+00 +0.0000000000e+00 +5.1670501327e+01 5.1670501327e+01 0.0000000000e+00 0.0000e+00 1.0000e+00
        2 -1    0    0  501    0 +0.0000000000e+00 -0.0000000000e+00 -1.0940936643e+03 1.0940936643e+03 0.0000000000e+00 0.0000e+00 -1.0000e+00
     -556  1    1    2    0    0 -7.4239351035e+01 -1.0213142557e+02 -5.7973966403e+02 6.2613128606e+02 2.0000000000e+02 0.0000e+00 1.0000e+00
      556  1    1    2    0    0 +7.4239351035e+01 +1.0213142557e+02 -4.6268349889e+02 5.1963287952e+02 2.0000000000e+02 0.0000e+00 -1.0000e+00
<mgrwt>
<rscale>  0 0.47553073E+03</rscale>
<asrwt>0</asrwt>
<pdfrwt beam="2">  1        2 0.16832208E+00 0.47553073E+03</pdfrwt>
<pdfrwt beam="1">  1       -2 0.79493090E-02 0.47553073E+03</pdfrwt>
<totfact> 0.21998554E+03</totfact>
</mgrwt>
</event>
<event>
 4      1 +1.5204000e-02 8.23591500e+02 7.81860800e-03 9.52648300e-02
       -1 -1    0    0    0  501 -0.0000000000e+00 +0.0000000000e+00 +1.3003725921e+02 1.3003725921e+02 0.0000000000e+00 0.0000e+00 1.0000e+00
        1 -1    0    0  501    0 +0.0000000000e+00 -0.0000000000e+00 -1.3040549647e+03 1.3040549647e+03 0.0000000000e+00 0.0000e+00 -1.0000e+00
     -556  1    1    2    0    0 -3.5668961001e+02 +1.2840503794e+01 -5.0564535634e+02 6.5043799306e+02 2.0000000000e+02 0.0000e+00 1.0000e+00
      556  1    1    2    0    0 +3.5668961001e+02 -1.2840503794e+01 -6.6837234910e+02 7.8365423081e+02 2.0000000000e+02 0.0000e+00 -1.0000e+00
<mgrwt>
<rscale>  0 0.82359148E+03</rscale>
<asrwt>0</asrwt>
<pdfrwt beam="2">  1        1 0.20062385E+00 0.82359148E+03</pdfrwt>
<pdfrwt beam="1">  1       -1 0.20005731E-01 0.82359148E+03</pdfrwt>
<totfact> 0.18572768E+02</totfact>
</mgrwt>
</event>
<event>
 4      1 +1.5204000e-02 1.37840500e+03 7.81860800e-03 8.96960000e-02
        2 -1    0    0  501    0 +0.0000000000e+00 +0.0000000000e+00 +8.2549675932e+02 8.2549675932e+02 0.0000000000e+00 0.0000e+00 -1.0000e+00
       -2 -1    0    0    0  501 -0.0000000000e+00 -0.0000000000e+00 -5.7541143866e+02 5.7541143866e+02 0.0000000000e+00 0.0000e+00 1.0000e+00
     -556  1    1    2    0    0 +2.1382230095e+02 +2.0708345495e+02 -4.7312048311e+02 5.9367206876e+02 2.0000000000e+02 0.0000e+00 1.0000e+00
      556  1    1    2    0    0 -2.1382230095e+02 -2.0708345495e+02 +7.2320580377e+02 8.0723612921e+02 2.0000000000e+02 0.0000e+00 -1.0000e+00
<mgrwt>
<rscale>  0 0.13784053E+04</rscale>
<asrwt>0</asrwt>
<pdfrwt beam="1">  1        2 0.12699950E+00 0.13784053E+04</pdfrwt>
<pdfrwt beam="2">  1       -2 0.88524838E-01 0.13784053E+04</pdfrwt>
<totfact> 0.35356336E+01</totfact>
</mgrwt>
</event>
<event>
 4      1 +1.5204000e-02 7.69629500e+02 7.81860800e-03 9.60504800e-02
       -1 -1    0    0    0  501 -0.0000000000e+00 +0.0000000000e+00 +2.1740449592e+02 2.1740449592e+02 0.0000000000e+00 0.0000e+00 1.0000e+00
        1 -1    0    0  501    0 +0.0000000000e+00 -0.0000000000e+00 -6.8113774919e+02 6.8113774919e+02 0.0000000000e+00 0.0000e+00 -1.0000e+00
     -556  1    1    2    0    0 +1.0104149560e+02 +7.1949037776e+01 -5.8732447868e+02 6.3272117961e+02 2.0000000000e+02 0.0000e+00 -1.0000e+00
      556  1    1    2    0    0 -1.0104149560e+02 -7.1949037776e+01 +1.2359122540e+02 2.6582106551e+02 2.0000000000e+02 0.0000e+00 1.0000e+00
<mgrwt>
<rscale>  0 0.76962954E+03</rscale>
<asrwt>0</asrwt>
<pdfrwt beam="2">  1        1 0.10479042E+00 0.76962954E+03</pdfrwt>
<pdfrwt beam="1">  1       -1 0.33446846E-01 0.76962954E+03</pdfrwt>
<totfact> 0.24155912E+02</totfact>
</mgrwt>
</event>
<event>
 4      1 +1.5204000e-02 7.79001700e+02 7.81860800e-03 9.59091900e-02
        1 -1    0    0  501    0 +0.0000000000e+00 +0.0000000000e+00 +2.3777061459e+03 2.3777061459e+03 0.0000000000e+00 0.0000e+00 -1.0000e+00
       -1 -1    0    0    0  501 -0.0000000000e+00 -0.0000000000e+00 -6.3805576696e+01 6.3805576696e+01 0.0000000000e+00 0.0000e+00 1.0000e+00
     -556  1    1    2    0    0 -6.6684567733e+01 -3.0872562340e+02 +1.4996005339e+03 1.5454967173e+03 2.0000000000e+02 0.0000e+00 1.0000e+00
      556  1    1    2    0    0 +6.6684567733e+01 +3.0872562340e+02 +8.1430003540e+02 8.9601500532e+02 2.0000000000e+02 0.0000e+00 -1.0000e+00
<mgrwt>
<rscale>  0 0.77900170E+03</rscale>
<asrwt>0</asrwt>
<pdfrwt beam="1">  1        1 0.36580088E+00 0.77900170E+03</pdfrwt>
<pdfrwt beam="2">  1       -1 0.98162444E-02 0.77900170E+03</pdfrwt>
<totfact> 0.11081752E+02</totfact>
</mgrwt>
</event>
<event>
 4      1 +1.5204000e-02 5.74662500e+02 7.81860800e-03 9.95941400e-02
        2 -1    0    0  501    0 +0.0000000000e+00 +0.0000000000e+00 +2.3394816756e+03 2.3394816756e+03 0.0000000000e+00 0.0000e+00 1.0000e+00
       -2 -1    0    0    0  501 -0.0000000000e+00 -0.0000000000e+00 -3.5289551141e+01 3.5289551141e+01 0.0000000000e+00 0.0000e+00 -1.0000e+00
     -556  1    1    2    0    0 -2.1237173929e+01 -1.5006773450e+02 +1.7304623960e+03 1.7485626801e+03 2.0000000000e+02 0.0000e+00 1.0000e+00
      556  1    1    2    0    0 +2.1237173929e+01 +1.5006773450e+02 +5.7372972853e+02 6.2620854665e+02 2.0000000000e+02 0.0000e+00 -1.0000e+00
<mgrwt>
<rscale>  0 0.57466254E+03</rscale>
<asrwt>0</asrwt>
<pdfrwt beam="1">  1        2 0.35992014E+00 0.57466254E+03</pdfrwt>
<pdfrwt beam="2">  1       -2 0.54291635E-02 0.57466254E+03</pdfrwt>
<totfact> 0.81827083E+02</totfact>
</mgrwt>
</event>
<event>
 4      1 +1.5204000e-02 5.37142400e+02 7.81860800e-03 1.00451500e-01
        1 -1    0    0  501    0 +0.0000000000e+00 +0.0000000000e+00 +3.2022899879e+02 3.2022899879e+02 0.0000000000e+00 0.0000e+00 -1.0000e+00
       -1 -1    0    0    0  501 -0.0000000000e+00 -0.0000000000e+00 -2.2524662738e+02 2.2524662738e+02 0.0000000000e+00 0.0000e+00 1.0000e+00
     -556  1    1    2    0    0 +7.5962209570e+00 +9.3010696812e+00 +2.2911291580e+02 3.0436317231e+02 2.0000000000e+02 0.0000e+00 -1.0000e+00
      556  1    1    2    0    0 -7.5962209570e+00 -9.3010696812e+00 -1.3413054439e+02 2.4111245386e+02 2.0000000000e+02 0.0000e+00 1.0000e+00
<mgrwt>
<rscale>  0 0.53714245E+03</rscale>
<asrwt>0</asrwt>
<pdfrwt beam="1">  1        1 0.49266000E-01 0.53714245E+03</pdfrwt>
<pdfrwt beam="2">  1       -1 0.34653327E-01 0.53714245E+03</pdfrwt>
<totfact> 0.64130598E+02</totfact>
</mgrwt>
</event>
<event>
 4      1 +1.5204000e-02 6.59251500e+02 7.81860800e-03 9.78957300e-02
       -1 -1    0    0    0  501 -0.0000000000e+00 +0.0000000000e+00 +1.0555964941e+02 1.0555964941e+02 0.0000000000e+00 0.0000e+00 1.0000e+00
        1 -1    0    0  501    0 +0.0000000000e+00 -0.0000000000e+00 -1.0293054438e+03 1.0293054438e+03 0.0000000000e+00 0.0000e+00 -1.0000e+00
     -556  1    1    2    0    0 +6.9061772156e+00 +2.5996079621e+02 -4.0673797074e+02 5.2255438730e+02 2.0000000000e+02 0.0000e+00 1.0000e+00
      556  1    1    2    0    0 -6.9061772156e+00 -2.5996079621e+02 -5.1700782364e+02 6.1231070590e+02 2.0000000000e+02 0.0000e+00 -1.0000e+00
<mgrwt>
<rscale>  0 0.65925146E+03</rscale>
<asrwt>0</asrwt>
<pdfrwt beam="2">  1        1 0.15835468E+00 0.65925146E+03</pdfrwt>
<pdfrwt beam="1">  1       -1 0.16239946E-01 0.65925146E+03</pdfrwt>
<totfact> 0.42053159E+02</totfact>
</mgrwt>
</event>
<event>
 4      1 +1.5204000e-02 7.05597700e+02 7.81860800e-03 9.70770700e-02
       -2 -1    0    0    0  501 -0.0000000000e+00 +0.0000000000e+00 +1.0922608560e+02 1.0922608560e+02 0.0000000000e+00 0.0000e+00 1.0000e+00
        2 -1    0    0  501    0 +0.0000000000e+00 -0.0000000000e+00 -1.1395358429e+03 1.1395358429e+03 0.0000000000e+00 0.0000e+00 -1.0000e+00
     -556  1    1    2    0    0 +1.0125758722e+02 +2.4723582894e+02 -3.1268262726e+02 4.5732819668e+02 2.0000000000e+02 0.0000e+00 1.0000e+00
      556  1    1    2    0    0 -1.0125758722e+02 -2.4723582894e+02 -7.1762713001e+02 7.9143373178e+02 2.0000000000e+02 0.0000e+00 -1.0000e+00
<mgrwt>
<rscale>  0 0.70559773E+03</rscale>
<asrwt>0</asrwt>
<pdfrwt beam="2">  1        2 0.17531320E+00 0.70559773E+03</pdfrwt>
<pdfrwt beam="1">  1       -2 0.16804014E-01 0.70559773E+03</pdfrwt>
<totfact> 0.59978656E+02</totfact>
</mgrwt>
</event>
<event>
 4      1 +1.5204000e-02 5.07833500e+02 7.81860800e-03 1.01175400e-01
        2 -1    0    0  501    0 +0.0000000000e+00 +0.0000000000e+00 +8.5894925793e+02 8.5894925793e+02 0.0000000000e+00 0.0000e+00 1.0000e+00
       -2 -1    0    0    0  501 -0.0000000000e+00 -0.0000000000e+00 -7.5061151316e+01 7.5061151316e+01 0.0000000000e+00 0.0000e+00 -1.0000e+00
     -556  1    1    2    0    0 +1.5540254458e+02 -1.2356521377e+01 +4.1600082021e+02 4.8719535804e+02 2.0000000000e+02 0.0000e+00 1.0000e+00
      556  1    1    2    0    0 -1.5540254458e+02 +1.2356521377e+01 +3.6788728640e+02 4.4681505120e+02 2.0000000000e+02 0.0000e+00 -1.0000e+00
<mgrwt>
<rscale>  0 0.50783352E+03</rscale>
<asrwt>0</asrwt>
<pdfrwt beam="1">  1        2 0.13214603E+00 0.50783352E+03</pdfrwt>
<pdfrwt beam="2">  1       -2 0.11547870E-01 0.50783352E+03</pdfrwt>
<totfact> 0.17029402E+03</totfact>
</mgrwt>
</event>
<event>
 4      1 +1.5204000e-02 8.08963400e+02 7.81860800e-03 9.54713300e-02
       -2 -1    0    0    0  501 -0.0000000000e+00 +0.0000000000e+00 +4.0033535983e+02 4.0033535983e+02 0.0000000000e+00 0.0000e+00 -1.0000e+00
        2 -1    0    0  501    0 +0.0000000000e+00 -0.0000000000e+00 -4.0867100667e+02 4.0867100667e+02 0.0000000000e+00 0.0000e+00 1.0000e+00
     -556  1    1    2    0    0 -2.5626894490e+02 -1.3083441653e+02 +1.9786774586e+02 4.0242149734e+02 2.0000000000e+02 0.0000e+00 -1.0000e+00
      556  1    1    2    0    0 +2.5626894490e+02 +1.3083441653e+02 -2.0620339270e+02 4.0658486916e+02 2.0000000000e+02 0.0000e+00 1.0000e+00
<mgrwt>
<rscale>  0 0.80896342E+03</rscale>
<asrwt>0</asrwt>
<pdfrwt beam="2">  1        2 0.62872462E-01 0.80896342E+03</pdfrwt>
<pdfrwt beam="1">  1       -2 0.61590056E-01 0.80896342E+03</pdfrwt>
<totfact> 0.19156235E+02</totfact>
</mgrwt>
</event>
<event>
 4      1 +1.5204000e-02 6.11955700e+02 7.81860800e-03 9.88090800e-02
        3 -1    0    0  501    0 +0.0000000000e+00 +0.0000000000e+00 +1.3910934825e+02 1.3910934825e+02 0.0000000000e+00 0.0000e+00 -1.0000e+00
       -3 -1    0    0    0  501 -0.0000000000e+00 -0.0000000000e+00 -6.7301331033e+02 6.7301331033e+02 0.0000000000e+00 0.0000e+00 1.0000e+00
     -556  1    1    2    0    0 +4.3388418320e+01 -8.6036592294e+01 -5.4639142155e+02 5.8976981578e+02 2.0000000000e+02 0.0000e+00 1.0000e+00
      556  1    1    2    0    0 -4.3388418320e+01 +8.6036592294e+01 +1.2487459465e+01 2.2235284280e+02 2.0000000000e+02 0.0000e+00 -1.0000e+00
<mgrwt>
<rscale>  0 0.61195569E+03</rscale>
<asrwt>0</asrwt>
<pdfrwt beam="1">  1        3 0.21401439E-01 0.61195569E+03</pdfrwt>
<pdfrwt beam="2">  1       -3 0.10354051E+00 0.61195569E+03</pdfrwt>
<totfact> 0.43004493E+01</totfact>
</mgrwt>
</event>
<event>
 4      1 +1.5204000e-02 8.15307700e+02 7.81860800e-03 9.53812000e-02
        2 -1    0    0  501    0 +0.0000000000e+00 +0.0000000000e+00 +3.9783385274e+02 3.9783385274e+02 0.0000000000e+00 0.0000e+00 -1.0000e+00
       -2 -1    0    0    0  501 -0.0000000000e+00 -0.0000000000e+00 -4.1771622262e+02 4.1771622262e+02 0.0000000000e+00 0.0000e+00 1.0000e+00
     -556  1    1    2    0    0 +4.4821543611e+01 -1.8564707537e+02 +2.8966054320e+02 4.0047101974e+02 2.0000000000e+02 0.0000e+00 -1.0000e+00
      556  1    1    2    0    0 -4.4821543611e+01 +1.8564707537e+02 -3.0954291309e+02 4.1507905561e+02 2.0000000000e+02 0.0000e+00 1.0000e+00
<mgrwt>
<rscale>  0 0.81530768E+03</rscale>
<asrwt>0</asrwt>
<pdfrwt beam="1">  1        2 0.61205208E-01 0.81530768E+03</pdfrwt>
<pdfrwt beam="2">  1       -2 0.64264034E-01 0.81530768E+03</pdfrwt>
<totfact> 0.18029608E+02</totfact>
</mgrwt>
</event>
<event>
 4      1 +1.5204000e-02 1.22951500e+03 7.81860800e-03 9.08740700e-02
       -2 -1    0    0    0  501 -0.0000000000e+00 +0.0000000000e+00 +3.4982291187e+02 3.4982291187e+02 0.0000000000e+00 0.0000e+00 1.0000e+00
        2 -1    0    0  501    0 +0.0000000000e+00 -0.0000000000e+00 -1.0803382608e+03 1.0803382608e+03 0.0000000000e+00 0.0000e+00 -1.0000e+00
     -556  1    1    2    0    0 +2.5815010752e+02 -1.8503998423e+02 +2.0106913128e+02 4.2580520115e+02 2.0000000000e+02 0.0000e+00 1.0000e+00
      556  1    1    2    0    0 -2.5815010752e+02 +1.8503998423e+02 -9.3158448020e+02 1.0043559715e+03 2.0000000000e+02 0.0000e+00 -1.0000e+00
<mgrwt>
<rscale>  0 0.12295155E+04</rscale>
<asrwt>0</asrwt>
<pdfrwt beam="2">  1        2 0.16620589E+00 0.12295155E+04</pdfrwt>
<pdfrwt beam="1">  1       -2 0.53818909E-01 0.12295155E+04</pdfrwt>
<totfact> 0.71763280E+01</totfact>
</mgrwt>
</event>
<event>
 4      1 +1.5204000e-02 6.87442000e+02 7.81860800e-03 9.73895200e-02
       -3 -1    0    0    0  501 -0.0000000000e+00 +0.0000000000e+00 +5.3382289048e+02 5.3382289048e+02 0.0000000000e+00 0.0000e+00 1.0000e+00
        3 -1    0    0  501    0 +0.0000000000e+00 -0.0000000000e+00 -2.2131709438e+02 2.2131709438e+02 0.0000000000e+00 0.0000e+00 -1.0000e+00
     -556  1    1    2    0    0 +1.0035363997e+02 +8.6627836933e+01 +4.2659657938e+02 4.8944854349e+02 2.0000000000e+02 0.0000e+00 1.0000e+00
      556  1    1    2    0    0 -1.0035363997e+02 -8.6627836933e+01 -1.1409078327e+02 2.6569144137e+02 2.0000000000e+02 0.0000e+00 -1.0000e+00
<mgrwt>
<rscale>  0 0.68744202E+03</rscale>
<asrwt>0</asrwt>
<pdfrwt beam="2">  1        3 0.34048784E-01 0.68744202E+03</pdfrwt>
<pdfrwt beam="1">  1       -3 0.82126598E-01 0.68744202E+03</pdfrwt>
<totfact> 0.30748133E+01</totfact>
</mgrwt>
</event>
<event>
 4      1 +1.5204000e-02 7.82941600e+02 7.81860800e-03 9.58504200e-02
        1 -1    0    0  501    0 +0.0000000000e+00 +0.0000000000e+00 +1.7894670188e+03 1.7894670188e+03 0.0000000000e+00 0.0000e+00 -1.0000e+00
       -1 -1    0    0    0  501 -0.0000000000e+00 -0.0000000000e+00 -8.5639676547e+01 8.5639676547e+01 0.0000000000e+00 0.0000e+00 1.0000e+00
     -556  1    1    2    0    0 -1.4517472116e+02 +2.6991739090e+02 +5.1903892467e+02 6.3508464231e+02 2.0000000000e+02 0.0000e+00 1.0000e+00
      556  1    1    2    0    0 +1.4517472116e+02 -2.6991739090e+02 +1.1847884176e+03 1.2400220530e+03 2.0000000000e+02 0.0000e+00 -1.0000e+00
<mgrwt>
<rscale>  0 0.78294157E+03</rscale>
<asrwt>0</asrwt>
<pdfrwt beam="1">  1        1 0.27530259E+00 0.78294157E+03</pdfrwt>
<pdfrwt beam="2">  1       -1 0.13175336E-01 0.78294157E+03</pdfrwt>
<totfact> 0.17184220E+02</totfact>
</mgrwt>
</event>
<event>
 4      1 +1.5204000e-02 5.79317600e+02 7.81860800e-03 9.94927000e-02
       -1 -1    0    0    0  501 -0.0000000000e+00 +0.0000000000e+00 +1.4154621564e+02 1.4154621564e+02 0.0000000000e+00 0.0000e+00 1.0000e+00
        1 -1    0    0  501    0 +0.0000000000e+00 -0.0000000000e+00 -5.9275493824e+02 5.9275493824e+02 0.0000000000e+00 0.0000e+00 -1.0000e+00
     -556  1    1    2    0    0 -1.7366823911e+02 -9.9612470138e-01 -3.7418418830e+02 4.5844896806e+02 2.0000000000e+02 0.0000e+00 -1.0000e+00
      556  1    1    2    0    0 +1.7366823911e+02 +9.9612470138e-01 -7.7024534301e+01 2.7585218582e+02 2.0000000000e+02 0.0000e+00 1.0000e+00
<mgrwt>
<rscale>  0 0.57931759E+03</rscale>
<asrwt>0</asrwt>
<pdfrwt beam="2">  1        1 0.91193069E-01 0.57931759E+03</pdfrwt>
<pdfrwt beam="1">  1       -1 0.21776341E-01 0.57931759E+03</pdfrwt>
<totfact> 0.62327098E+02</totfact>
</mgrwt>
</event>
<event>
 4      1 +1.5204000e-02 1.27128200e+03 7.81860800e-03 9.05265400e-02
       -2 -1    0    0    0  501 -0.0000000000e+00 +0.0000000000e+00 +5.8868564409e+02 5.8868564409e+02 0.0000000000e+00 0.0000e+00 -1.0000e+00
        2 -1    0    0  501    0 +0.0000000000e+00 -0.0000000000e+00 -6.8634164267e+02 6.8634164267e+02 0.0000000000e+00 0.0000e+00 1.0000e+00
     -556  1    1    2    0    0 -4.6941470135e+02 +1.3764574761e+02 -4.0305821669e+02 6.6464459655e+02 2.0000000000e+02 0.0000e+00 1.0000e+00
      556  1    1    2    0    0 +4.6941470135e+02 -1.3764574761e+02 +3.0540221811e+02 6.1038269021e+02 2.0000000000e+02 0.0000e+00 -1.0000e+00
<mgrwt>
<rscale>  0 0.12712820E+04</rscale>
<asrwt>0</asrwt>
<pdfrwt beam="2">  1        2 0.10559102E+00 0.12712820E+04</pdfrwt>
<pdfrwt beam="1">  1       -2 0.90567022E-01 0.12712820E+04</pdfrwt>
<totfact> 0.42986906E+01</totfact>
</mgrwt>
</event>
<event>
 4      1 +1.5204000e-02 5.10185300e+02 7.81860800e-03 1.01115400e-01
        1 -1    0    0  501    0 +0.0000000000e+00 +0.0000000000e+00 +2.0017506114e+03 2.0017506114e+03 0.0000000000e+00 0.0000e+00 -1.0000e+00
       -1 -1    0    0    0  501 -0.0000000000e+00 -0.0000000000e+00 -3.2507673897e+01 3.2507673897e+01 0.0000000000e+00 0.0000e+00 1.0000e+00
     -556  1    1    2    0    0 +6.7255304294e+01 -8.5542261800e+01 +5.2597005940e+02 5.7313633448e+02 2.0000000000e+02 0.0000e+00 1.0000e+00
      556  1    1    2    0    0 -6.7255304294e+01 +8.5542261800e+01 +1.4432728781e+03 1.4611219508e+03 2.0000000000e+02 0.0000e+00 -1.0000e+00
<mgrwt>
<rscale>  0 0.51018528E+03</rscale>
<asrwt>0</asrwt>
<pdfrwt beam="1">  1        1 0.30796154E+00 0.51018528E+03</pdfrwt>
<pdfrwt beam="2">  1       -1 0.50011822E-02 0.51018528E+03</pdfrwt>
<totfact> 0.57743605E+02</totfact>
</mgrwt>
</event>
<event>
 4      1 +1.5204000e-02 7.07875000e+02 7.81860800e-03 9.70385900e-02
       -1 -1    0    0    0  501 -0.0000000000e+00 +0.0000000000e+00 +1.6385122221e+02 1.6385122221e+02 0.0000000000e+00 0.0000e+00 1.0000e+00
        1 -1    0    0  501    0 +0.0000000000e+00 -0.0000000000e+00 -7.6454581309e+02 7.6454581309e+02 0.0000000000e+00 0.0000e+00 -1.0000e+00
     -556  1    1    2    0    0 -2.1978982508e+02 +1.5413846634e+02 -4.5106181684e+02 5.6171433721e+02 2.0000000000e+02 0.0000e+00 -1.0000e+00
      556  1    1    2    0    0 +2.1978982508e+02 -1.5413846634e+02 -1.4963277403e+02 3.6668269809e+02 2.0000000000e+02 0.0000e+00 1.0000e+00
<mgrwt>
<rscale>  0 0.70787503E+03</rscale>
<asrwt>0</asrwt>
<pdfrwt beam="2">  1        1 0.11762243E+00 0.70787503E+03</pdfrwt>
<pdfrwt beam="1">  1       -1 0.25207880E-01 0.70787503E+03</pdfrwt>
<totfact> 0.33179371E+02</totfact>
</mgrwt>
</event>
<event>
 4      1 +1.5204000e-02 6.75046100e+02 7.81860800e-03 9.76088500e-02
       -1 -1    0    0    0  501 -0.0000000000e+00 +0.0000000000e+00 +9.4520429813e+02 9.4520429813e+02 0.0000000000e+00 0.0000e+00 1.0000e+00
        1 -1    0    0  501    0 +0.0000000000e+00 -0.0000000000e+00 -1.2052611681e+02 1.2052611681e+02 0.0000000000e+00 0.0000e+00 -1.0000e+00
     -556  1    1    2    0    0 -5.7008090929e+01 +6.9319737869e+01 +8.1751791815e+02 8.4639866197e+02 2.0000000000e+02 0.0000e+00 1.0000e+00
      556  1    1    2    0    0 +5.7008090929e+01 -6.9319737869e+01 +7.1602631707e+00 2.1933175296e+02 2.0000000000e+02 0.0000e+00 -1.0000e+00
<mgrwt>
<rscale>  0 0.67504608E+03</rscale>
<asrwt>0</asrwt>
<pdfrwt beam="2">  1        1 0.18542480E-01 0.67504608E+03</pdfrwt>
<pdfrwt beam="1">  1       -1 0.14541604E+00 0.67504608E+03</pdfrwt>
<totfact> 0.11224621E+02</totfact>
</mgrwt>
</event>
<event>
 4      1 +1.5204000e-02 7.95812600e+02 7.81860800e-03 9.56609800e-02
       -2 -1    0    0    0  501 -0.0000000000e+00 +0.0000000000e+00 +1.3777338279e+02 1.3777338279e+02 0.0000000000e+00 0.0000e+00 1.0000e+00
        2 -1    0    0  501    0 +0.0000000000e+00 -0.0000000000e+00 -1.1492017402e+03 1.1492017402e+03 0.0000000000e+00 0.0000e+00 -1.0000e+00
     -556  1    1    2    0    0 -7.0174189252e+00 -1.5771276294e+02 -1.1461849390e+01 2.5505672654e+02 2.0000000000e+02 0.0000e+00 1.0000e+00
      556  1    1    2    0    0 +7.0174189252e+00 +1.5771276294e+02 -9.9996650797e+02 1.0319183964e+03 2.0000000000e+02 0.0000e+00 -1.0000e+00
<mgrwt>
<rscale>  0 0.79581257E+03</rscale>
<asrwt>0</asrwt>
<pdfrwt beam="2">  1        2 0.17680026E+00 0.79581257E+03</pdfrwt>
<pdfrwt beam="1">  1       -2 0.21195906E-01 0.79581257E+03</pdfrwt>
<totfact> 0.39375801E+02</totfact>
</mgrwt>
</event>
<event>
 4      1 +1.5204000e-02 4.71218000e+02 7.81860800e-03 1.02157700e-01
        2 -1    0    0  501    0 +0.0000000000e+00 +0.0000000000e+00 +2.9131323948e+03 2.9131323948e+03 0.0000000000e+00 0.0000e+00 -1.0000e+00
       -2 -1    0    0    0  501 -0.0000000000e+00 -0.0000000000e+00 -1.9055640295e+01 1.9055640295e+01 0.0000000000e+00 0.0000e+00 1.0000e+00
     -556  1    1    2    0    0 -8.2942313148e+01 -1.1614976260e+01 +8.7343777760e+02 8.9994882428e+02 2.0000000000e+02 0.0000e+00 1.0000e+00
      556  1    1    2    0    0 +8.2942313148e+01 +1.1614976260e+01 +2.0206389769e+03 2.0322392108e+03 2.0000000000e+02 0.0000e+00 -1.0000e+00
<mgrwt>
<rscale>  0 0.47121801E+03</rscale>
<asrwt>0</asrwt>
<pdfrwt beam="1">  1        2 0.44817386E+00 0.47121801E+03</pdfrwt>
<pdfrwt beam="2">  1       -2 0.29316393E-02 0.47121801E+03</pdfrwt>
<totfact> 0.99913337E+02</totfact>
</mgrwt>
</event>
<event>
 4      1 +1.5204000e-02 7.84199600e+02 7.81860800e-03 9.58317300e-02
       -2 -1    0    0    0  501 -0.0000000000e+00 +0.0000000000e+00 +8.9024253923e+01 8.9024253923e+01 0.0000000000e+00 0.0000e+00 1.0000e+00
        2 -1    0    0  501    0 +0.0000000000e+00 -0.0000000000e+00 -1.7269705178e+03 1.7269705178e+03 0.0000000000e+00 0.0000e+00 -1.0000e+00
     -556  1    1    2    0    0 -4.1765269480e+01 +2.2128665329e+02 -1.4003558329e+03 1.4323786439e+03 2.0000000000e+02 0.0000e+00 -1.0000e+00
      556  1    1    2    0    0 +4.1765269480e+01 -2.2128665329e+02 -2.3759043096e+02 3.8361612785e+02 2.0000000000e+02 0.0000e+00 1.0000e+00
<mgrwt>
<rscale>  0 0.78419962E+03</rscale>
<asrwt>0</asrwt>
<pdfrwt beam="2">  1        2 0.26568777E+00 0.78419962E+03</pdfrwt>
<pdfrwt beam="1">  1       -2 0.13696039E-01 0.78419962E+03</pdfrwt>
<totfact> 0.39262883E+02</totfact>
</mgrwt>
</event>
<event>
 4      1 +1.5204000e-02 5.78548300e+02 7.81860800e-03 9.95093900e-02
       -3 -1    0    0    0  501 -0.0000000000e+00 +0.0000000000e+00 +1.2887046503e+02 1.2887046503e+02 0.0000000000e+00 0.0000e+00 1.0000e+00
        3 -1    0    0  501    0 +0.0000000000e+00 -0.0000000000e+00 -6.4933055606e+02 6.4933055606e+02 0.0000000000e+00 0.0000e+00 -1.0000e+00
     -556  1    1    2    0    0 +1.5643345143e+01 -2.0723362955e+02 -2.3048435587e+02 3.6920662205e+02 2.0000000000e+02 0.0000e+00 1.0000e+00
      556  1    1    2    0    0 -1.5643345143e+01 +2.0723362955e+02 -2.8997573516e+02 4.0899439904e+02 2.0000000000e+02 0.0000e+00 -1.0000e+00
<mgrwt>
<rscale>  0 0.57854829E+03</rscale>
<asrwt>0</asrwt>
<pdfrwt beam="2">  1        3 0.99897008E-01 0.57854829E+03</pdfrwt>
<pdfrwt beam="1">  1       -3 0.19826226E-01 0.57854829E+03</pdfrwt>
<totfact> 0.53758853E+01</totfact>
</mgrwt>
</event>
<event>
 4      1 +1.5204000e-02 7.65770200e+02 7.81860800e-03 9.61092900e-02
       -2 -1    0    0    0  501 -0.0000000000e+00 +0.0000000000e+00 +9.6798889166e+01 9.6798889166e+01 0.0000000000e+00 0.0000e+00 1.0000e+00
        2 -1    0    0  501    0 +0.0000000000e+00 -0.0000000000e+00 -1.5144905401e+03 1.5144905401e+03 0.0000000000e+00 0.0000e+00 -1.0000e+00
     -556  1    1    2    0    0 +5.6530767796e+01 -3.1293050989e+02 -5.5308570784e+02 6.6859930597e+02 2.0000000000e+02 0.0000e+00 -1.0000e+00
      556  1    1    2    0    0 -5.6530767796e+01 +3.1293050989e+02 -8.6460594310e+02 9.4269012330e+02 2.0000000000e+02 0.0000e+00 1.0000e+00
<mgrwt>
<rscale>  0 0.76577021E+03</rscale>
<asrwt>0</asrwt>
<pdfrwt beam="2">  1        2 0.23299852E+00 0.76577021E+03</pdfrwt>
<pdfrwt beam="1">  1       -2 0.14892138E-01 0.76577021E+03</pdfrwt>
<totfact> 0.44702963E+02</totfact>
</mgrwt>
</event>
<event>
 4      1 +1.5204000e-02 4.31427100e+02 7.81860800e-03 1.03341000e-01
       -1 -1    0    0    0  501 -0.0000000000e+00 +0.0000000000e+00 +6.1656224871e+02 6.1656224871e+02 0.0000000000e+00 0.0000e+00 1.0000e+00
        1 -1    0    0  501    0 +0.0000000000e+00 -0.0000000000e+00 -7.5470618465e+01 7.5470618465e+01 0.0000000000e+00 0.0000e+00 -1.0000e+00
     -556  1    1    2    0    0 -3.1457124560e+01 +2.2482829267e+01 +3.8439199702e+02 4.3503130424e+02 2.0000000000e+02 0.0000e+00 1.0000e+00
      556  1    1    2    0    0 +3.1457124560e+01 -2.2482829267e+01 +1.5669963323e+02 2.5700156293e+02 2.0000000000e+02 0.0000e+00 -1.0000e+00
<mgrwt>
<rscale>  0 0.43142709E+03</rscale>
<asrwt>0</asrwt>
<pdfrwt beam="2">  1        1 0.11610865E-01 0.43142709E+03</pdfrwt>
<pdfrwt beam="1">  1       -1 0.94855727E-01 0.43142709E+03</pdfrwt>
<totfact> 0.59474246E+02</totfact>
</mgrwt>
</event>
<event>
 4      1 +1.5204000e-02 7.05102500e+02 7.81860800e-03 9.70854600e-02
        1 -1    0    0  501    0 +0.0000000000e+00 +0.0000000000e+00 +2.2028213550e+03 2.2028213550e+03 0.0000000000e+00 0.0000e+00 -1.0000e+00
       -1 -1    0    0    0  501 -0.0000000000e+00 -0.0000000000e+00 -5.6424184089e+01 5.6424184089e+01 0.0000000000e+00 0.0000e+00 1.0000e+00
     -556  1    1    2    0    0 +2.0765760739e+02 -1.8001096198e+02 +7.7319189216e+02 8.4460128489e+02 2.0000000000e+02 0.0000e+00 -1.0000e+00
      556  1    1    2    0    0 -2.0765760739e+02 +1.8001096198e+02 +1.3732052787e+03 1.4146442542e+03 2.0000000000e+02 0.0000e+00 1.0000e+00
<mgrwt>
<rscale>  0 0.70510254E+03</rscale>
<asrwt>0</asrwt>
<pdfrwt beam="1">  1        1 0.33889553E+00 0.70510254E+03</pdfrwt>
<pdfrwt beam="2">  1       -1 0.86806454E-02 0.70510254E+03</pdfrwt>
<totfact> 0.17772610E+02</totfact>
</mgrwt>
</event>
<event>
 4      1 +1.5204000e-02 4.21188700e+02 7.81860800e-03 1.03668000e-01
        2 -1    0    0  501    0 +0.0000000000e+00 +0.0000000000e+00 +1.6230425373e+03 1.6230425373e+03 0.0000000000e+00 0.0000e+00 -1.0000e+00
       -2 -1    0    0    0  501 -0.0000000000e+00 -0.0000000000e+00 -2.7325209882e+01 2.7325209882e+01 0.0000000000e+00 0.0000e+00 1.0000e+00
     -556  1    1    2    0    0 -1.5094207685e+01 -1.3556023161e+01 +5.5195631487e+02 5.8742435631e+02 2.0000000000e+02 0.0000e+00 1.0000e+00
      556  1    1    2    0    0 +1.5094207685e+01 +1.3556023161e+01 +1.0437610125e+03 1.0629433909e+03 2.0000000000e+02 0.0000e+00 -1.0000e+00
<mgrwt>
<rscale>  0 0.42118869E+03</rscale>
<asrwt>0</asrwt>
<pdfrwt beam="1">  1        2 0.24969878E+00 0.42118869E+03</pdfrwt>
<pdfrwt beam="2">  1       -2 0.42038797E-02 0.42118869E+03</pdfrwt>
<totfact> 0.29854790E+03</totfact>
</mgrwt>
</event>
<event>
 4      1 +1.5204000e-02 7.15095400e+02 7.81860800e-03 9.69176000e-02
        2 -1    0    0  501    0 +0.0000000000e+00 +0.0000000000e+00 +1.4477051305e+03 1.4477051305e+03 0.0000000000e+00 0.0000e+00 -1.0000e+00
       -2 -1    0    0    0  501 -0.0000000000e+00 -0.0000000000e+00 -8.8305522611e+01 8.8305522611e+01 0.0000000000e+00 0.0000e+00 1.0000e+00
     -556  1    1    2    0    0 +5.8323768903e+01 +1.8044371114e+02 +1.1689432876e+03 1.2009954223e+03 2.0000000000e+02 0.0000e+00 -1.0000e+00
      556  1    1    2    0    0 -5.8323768903e+01 -1.8044371114e+02 +1.9045632033e+02 3.3501523079e+02 2.0000000000e+02 0.0000e+00 1.0000e+00
<mgrwt>
<rscale>  0 0.71509540E+03</rscale>
<asrwt>0</asrwt>
<pdfrwt beam="1">  1        2 0.22272385E+00 0.71509540E+03</pdfrwt>
<pdfrwt beam="2">  1       -2 0.13585466E-01 0.71509540E+03</pdfrwt>
<totfact> 0.57001374E+02</totfact>
</mgrwt>
</event>
<event>
 4      1 +1.5204000e-02 5.01285400e+02 7.81860800e-03 1.01344400e-01
       -1 -1    0    0    0  501 -0.0000000000e+00 +0.0000000000e+00 +1.3528339984e+02 1.3528339984e+02 0.0000000000e+00 0.0000e+00 1.0000e+00
        1 -1    0    0  501    0 +0.0000000000e+00 -0.0000000000e+00 -4.6437158281e+02 4.6437158281e+02 0.0000000000e+00 0.0000e+00 -1.0000e+00
     -556  1    1    2    0    0 -1.0347284676e+02 +1.0917427277e+02 -1.8129627447e+02 3.0902102030e+02 2.0000000000e+02 0.0000e+00 1.0000e+00
      556  1    1    2    0    0 +1.0347284676e+02 -1.0917427277e+02 -1.4779190850e+02 2.9063396234e+02 2.0000000000e+02 0.0000e+00 -1.0000e+00
<mgrwt>
<rscale>  0 0.50128541E+03</rscale>
<asrwt>0</asrwt>
<pdfrwt beam="2">  1        1 0.71441781E-01 0.50128541E+03</pdfrwt>
<pdfrwt beam="1">  1       -1 0.20812831E-01 0.50128541E+03</pdfrwt>
<totfact> 0.94230289E+02</totfact>
</mgrwt>
</event>
<event>
 4      1 +1.5204000e-02 6.19830800e+02 7.81860800e-03 9.86509700e-02
       -1 -1    0    0    0  501 -0.0000000000e+00 +0.0000000000e+00 +8.7506045099e+01 8.7506045099e+01 0.0000000000e+00 0.0000e+00 1.0000e+00
        1 -1    0    0  501    0 +0.0000000000e+00 -0.0000000000e+00 -1.0976105415e+03 1.0976105415e+03 0.0000000000e+00 0.0000e+00 -1.0000e+00
     -556  1    1    2    0    0 -1.9782522384e+02 +6.6096991512e+01 -7.1919563202e+02 7.7507805322e+02 2.0000000000e+02 0.0000e+00 -1.0000e+00
      556  1    1    2    0    0 +1.9782522384e+02 -6.6096991512e+01 -2.9090886437e+02 4.1003853336e+02 2.0000000000e+02 0.0000e+00 1.0000e+00
<mgrwt>
<rscale>  0 0.61983081E+03</rscale>
<asrwt>0</asrwt>
<pdfrwt beam="2">  1        1 0.16886316E+00 0.61983081E+03</pdfrwt>
<pdfrwt beam="1">  1       -1 0.13462469E-01 0.61983081E+03</pdfrwt>
<totfact> 0.50727968E+02</totfact>
</mgrwt>
</event>
<event>
 4      1 +1.5204000e-02 4.69773700e+02 7.81860800e-03 1.02198400e-01
       -1 -1    0    0    0  501 -0.0000000000e+00 +0.0000000000e+00 +5.4113081217e+01 5.4113081217e+01 0.0000000000e+00 0.0000e+00 1.0000e+00
        1 -1    0    0  501    0 +0.0000000000e+00 -0.0000000000e+00 -1.0195656033e+03 1.0195656033e+03 0.0000000000e+00 0.0000e+00 -1.0000e+00
     -556  1    1    2    0    0 +1.9674343177e+01 +4.5145787647e+01 -7.4076388834e+02 7.6886693269e+02 2.0000000000e+02 0.0000e+00 -1.0000e+00
      556  1    1    2    0    0 -1.9674343177e+01 -4.5145787647e+01 -2.2468863378e+02 3.0481175186e+02 2.0000000000e+02 0.0000e+00 1.0000e+00
<mgrwt>
<rscale>  0 0.46977372E+03</rscale>
<asrwt>0</asrwt>
<pdfrwt beam="2">  1        1 0.15685623E+00 0.46977372E+03</pdfrwt>
<pdfrwt beam="1">  1       -1 0.83250900E-02 0.46977372E+03</pdfrwt>
<totfact> 0.12477063E+03</totfact>
</mgrwt>
</event>
<event>
 4      1 +1.5204000e-02 7.86903800e+02 7.81860800e-03 9.57916900e-02
        3 -1    0    0  501    0 +0.0000000000e+00 +0.0000000000e+00 +1.3054524100e+02 1.3054524100e+02 0.0000000000e+00 0.0000e+00 -1.0000e+00
       -3 -1    0    0    0  501 -0.0000000000e+00 -0.0000000000e+00 -1.1858293905e+03 1.1858293905e+03 0.0000000000e+00 0.0000e+00 1.0000e+00
     -556  1    1    2    0    0 +1.7896912679e+02 -1.4415727927e+02 -1.1112807094e+02 3.2428493283e+02 2.0000000000e+02 0.0000e+00 -1.0000e+00
      556  1    1    2    0    0 -1.7896912679e+02 +1.4415727927e+02 -9.4415607854e+02 9.9208969864e+02 2.0000000000e+02 0.0000e+00 1.0000e+00
<mgrwt>
<rscale>  0 0.78690376E+03</rscale>
<asrwt>0</asrwt>
<pdfrwt beam="1">  1        3 0.20083883E-01 0.78690376E+03</pdfrwt>
<pdfrwt beam="2">  1       -3 0.18243529E+00 0.78690376E+03</pdfrwt>
<totfact> 0.11481498E+01</totfact>
</mgrwt>
</event>
<event>
 4      1 +1.5204000e-02 1.06826300e+03 7.81860800e-03 9.23668900e-02
        2 -1    0    0  501    0 +0.0000000000e+00 +0.0000000000e+00 +8.1859113894e+02 8.1859113894e+02 0.0000000000e+00 0.0000e+00 -1.0000e+00
       -2 -1    0    0    0  501 -0.0000000000e+00 -0.0000000000e+00 -3.4852116996e+02 3.4852116996e+02 0.0000000000e+00 0.0000e+00 1.0000e+00
     -556  1    1    2    0    0 -4.6982305636e+02 +1.1794833633e+02 +3.4778749497e+02 6.2896872417e+02 2.0000000000e+02 0.0000e+00 1.0000e+00
      556  1    1    2    0    0 +4.6982305636e+02 -1.1794833633e+02 +1.2228247401e+02 5.3814358472e+02 2.0000000000e+02 0.0000e+00 -1.0000e+00
<mgrwt>
<rscale>  0 0.10682628E+04</rscale>
<asrwt>0</asrwt>
<pdfrwt beam="1">  1        2 0.12593710E+00 0.10682628E+04</pdfrwt>
<pdfrwt beam="2">  1       -2 0.53618642E-01 0.10682628E+04</pdfrwt>
<totfact> 0.10891240E+02</totfact>
</mgrwt>
</event>
<event>
 4      1 +1.5204000e-02 5.35052600e+02 7.81860800e-03 1.00501400e-01
        1 -1    0    0  501    0 +0.0000000000e+00 +0.0000000000e+00 +3.4334842764e+02 3.4334842764e+02 0.0000000000e+00 0.0000e+00 -1.0000e+00
       -1 -1    0    0    0  501 -0.0000000000e+00 -0.0000000000e+00 -2.0844811268e+02 2.0844811268e+02 0.0000000000e+00 0.0000e+00 1.0000e+00
     -556  1    1    2    0    0 -2.5654630550e+01 -1.7492955319e+02 +8.5661274873e+01 2.8035042832e+02 2.0000000000e+02 0.0000e+00 1.0000e+00
      556  1    1    2    0    0 +2.5654630550e+01 +1.7492955319e+02 +4.9239040087e+01 2.7144611199e+02 2.0000000000e+02 0.0000e+00 -1.0000e+00
<mgrwt>
<rscale>  0 0.53505264E+03</rscale>
<asrwt>0</asrwt>
<pdfrwt beam="1">  1        1 0.52822835E-01 0.53505264E+03</pdfrwt>
<pdfrwt beam="2">  1       -1 0.32068940E-01 0.53505264E+03</pdfrwt>
<totfact> 0.67153239E+02</totfact>
</mgrwt>
</event>
<event>
 4      1 +1.5204000e-02 5.15785600e+02 7.81860800e-03 1.00973900e-01
        1 -1    0    0  501    0 +0.0000000000e+00 +0.0000000000e+00 +2.4850559273e+02 2.4850559273e+02 0.0000000000e+00 0.0000e+00 -1.0000e+00
       -1 -1    0    0    0  501 -0.0000000000e+00 -0.0000000000e+00 -2.6763464188e+02 2.6763464188e+02 0.0000000000e+00 0.0000e+00 1.0000e+00
     -556  1    1    2    0    0 +1.5275944025e+02 +4.7501038026e+01 -3.9865866024e+01 2.5919313739e+02 2.0000000000e+02 0.0000e+00 1.0000e+00
      556  1    1    2    0    0 -1.5275944025e+02 -4.7501038026e+01 +2.0736816872e+01 2.5694709722e+02 2.0000000000e+02 0.0000e+00 -1.0000e+00
<mgrwt>
<rscale>  0 0.51578563E+03</rscale>
<asrwt>0</asrwt>
<pdfrwt beam="1">  1        1 0.38231630E-01 0.51578563E+03</pdfrwt>
<pdfrwt beam="2">  1       -1 0.41174560E-01 0.51578563E+03</pdfrwt>
<totfact> 0.65264023E+02</totfact>
</mgrwt>
</event>
<event>
 4      1 +1.5204000e-02 7.04131900e+02 7.81860800e-03 9.71019200e-02
       -1 -1    0    0    0  501 -0.0000000000e+00 +0.0000000000e+00 +8.0107216242e+01 8.0107216242e+01 0.0000000000e+00 0.0000e+00 1.0000e+00
        1 -1    0    0  501    0 +0.0000000000e+00 -0.0000000000e+00 -1.5473066723e+03 1.5473066723e+03 0.0000000000e+00 0.0000e+00 -1.0000e+00
     -556  1    1    2    0    0 -9.7373789047e+01 +2.3715444792e+02 -1.0456295893e+03 1.0950183218e+03 2.0000000000e+02 0.0000e+00 -1.0000e+00
      556  1    1    2    0    0 +9.7373789047e+01 -2.3715444792e+02 -4.2156986669e+02 5.3239556672e+02 2.0000000000e+02 0.0000e+00 1.0000e+00
<mgrwt>
<rscale>  0 0.70413189E+03</rscale>
<asrwt>0</asrwt>
<pdfrwt beam="2">  1        1 0.23804719E+00 0.70413189E+03</pdfrwt>
<pdfrwt beam="1">  1       -1 0.12324187E-01 0.70413189E+03</pdfrwt>
<totfact> 0.28035474E+02</totfact>
</mgrwt>
</event>
<event>
 4      1 +1.5204000e-02 5.62817000e+02 7.81860800e-03 9.98570100e-02
        2 -1    0    0  501    0 +0.0000000000e+00 +0.0000000000e+00 +2.7071627431e+03 2.7071627431e+03 0.0000000000e+00 0.0000e+00 -1.0000e+00
       -2 -1    0    0    0  501 -0.0000000000e+00 -0.0000000000e+00 -2.9252307702e+01 2.9252307702e+01 0.0000000000e+00 0.0000e+00 1.0000e+00
     -556  1    1    2    0    0 +1.6059414129e+02 +1.1297447622e+02 +1.2162394170e+03 1.2481153913e+03 2.0000000000e+02 0.0000e+00 1.0000e+00
      556  1    1    2    0    0 -1.6059414129e+02 -1.1297447622e+02 +1.4616710184e+03 1.4882996595e+03 2.0000000000e+02 0.0000e+00 -1.0000e+00
<mgrwt>
<rscale>  0 0.56281705E+03</rscale>
<asrwt>0</asrwt>
<pdfrwt beam="1">  1        2 0.41648638E+00 0.56281705E+03</pdfrwt>
<pdfrwt beam="2">  1       -2 0.45003572E-02 0.56281705E+03</pdfrwt>
<totfact> 0.67943474E+02</totfact>
</mgrwt>
</event>
<event>
 4      1 +1.5204000e-02 9.24600000e+02 7.81860800e-03 9.39534200e-02
       -2 -1    0    0    0  501 -0.0000000000e+00 +0.0000000000e+00 +4.8492111994e+01 4.8492111994e+01 0.0000000000e+00 0.0000e+00 1.0000e+00
        2 -1    0    0  501    0 +0.0000000000e+00 -0.0000000000e+00 -4.4073416373e+03 4.4073416373e+03 0.0000000000e+00 0.0000e+00 -1.0000e+00
     -556  1    1    2    0    0 -8.9394343419e+00 -3.3951173822e+02 -1.0150796735e+03 1.0889145410e+03 2.0000000000e+02 0.0000e+00 1.0000e+00
      556  1    1    2    0    0 +8.9394343419e+00 +3.3951173822e+02 -3.3437698518e+03 3.3669192083e+03 2.0000000000e+02 0.0000e+00 -1.0000e+00
<mgrwt>
<rscale>  0 0.92460003E+03</rscale>
<asrwt>0</asrwt>
<pdfrwt beam="2">  1        2 0.67805259E+00 0.92460003E+03</pdfrwt>
<pdfrwt beam="1">  1       -2 0.74603246E-02 0.92460003E+03</pdfrwt>
<totfact> 0.18143056E+01</totfact>
</mgrwt>
</event>
<event>
 4      1 +1.5204000e-02 6.71724100e+02 7.81860800e-03 9.76684800e-02
        2 -1    0    0  501    0 +0.0000000000e+00 +0.0000000000e+00 +2.2362937462e+03 2.2362937462e+03 0.0000000000e+00 0.0000e+00 -1.0000e+00
       -2 -1    0    0    0  501 -0.0000000000e+00 -0.0000000000e+00 -5.0442080910e+01 5.0442080910e+01 0.0000000000e+00 0.0000e+00 1.0000e+00
     -556  1    1    2    0    0 +1.6539340592e+02 -2.1316421060e+02 +1.1033357366e+03 1.1533185627e+03 2.0000000000e+02 0.0000e+00 -1.0000e+00
      556  1    1    2    0    0 -1.6539340592e+02 +2.1316421060e+02 +1.0825159288e+03 1.1334172645e+03 2.0000000000e+02 0.0000e+00 1.0000e+00
<mgrwt>
<rscale>  0 0.67172408E+03</rscale>
<asrwt>0</asrwt>
<pdfrwt beam="1">  1        2 0.34404511E+00 0.67172408E+03</pdfrwt>
<pdfrwt beam="2">  1       -2 0.77603219E-02 0.67172408E+03</pdfrwt>
<totfact> 0.52732983E+02</totfact>
</mgrwt>
</event>
<event>
 4      1 +1.5204000e-02 6.51558200e+02 7.81860800e-03 9.80386000e-02
       -3 -1    0    0    0  501 -0.0000000000e+00 +0.0000000000e+00 +4.7968196486e+01 4.7968196486e+01 0.0000000000e+00 0.0000e+00 1.0000e+00
        3 -1    0    0  501    0 +0.0000000000e+00 -0.0000000000e+00 -2.2125499904e+03 2.2125499904e+03 0.0000000000e+00 0.0000e+00 -1.0000e+00
     -556  1    1    2    0    0 -1.0055971339e+02 +2.1779331731e+02 -7.6081652406e+02 8.2242809309e+02 2.0000000000e+02 0.0000e+00 1.0000e+00
      556  1    1    2    0    0 +1.0055971339e+02 -2.1779331731e+02 -1.4037652699e+03 1.4380900938e+03 2.0000000000e+02 0.0000e+00 -1.0000e+00
<mgrwt>
<rscale>  0 0.65155823E+03</rscale>
<asrwt>0</asrwt>
<pdfrwt beam="2">  1        3 0.34039225E+00 0.65155823E+03</pdfrwt>
<pdfrwt beam="1">  1       -3 0.73797238E-02 0.65155823E+03</pdfrwt>
<totfact> 0.81894770E+00</totfact>
</mgrwt>
</event>
<event>
 4      1 +1.5204000e-02 7.40602400e+02 7.81860800e-03 9.65021000e-02
        2 -1    0    0  501    0 +0.0000000000e+00 +0.0000000000e+00 +9.7291586881e+02 9.7291586881e+02 0.0000000000e+00 0.0000e+00 -1.0000e+00
       -2 -1    0    0    0  501 -0.0000000000e+00 -0.0000000000e+00 -1.4094021030e+02 1.4094021030e+02 0.0000000000e+00 0.0000e+00 1.0000e+00
     -556  1    1    2    0    0 +2.2166587201e+00 -1.2346129707e+02 -1.4360972910e+01 2.3548639662e+02 2.0000000000e+02 0.0000e+00 1.0000e+00
      556  1    1    2    0    0 -2.2166587201e+00 +1.2346129707e+02 +8.4633663141e+02 8.7836968249e+02 2.0000000000e+02 0.0000e+00 -1.0000e+00
<mgrwt>
<rscale>  0 0.74060237E+03</rscale>
<asrwt>0</asrwt>
<pdfrwt beam="1">  1        2 0.14967936E+00 0.74060237E+03</pdfrwt>
<pdfrwt beam="2">  1       -2 0.21683110E-01 0.74060237E+03</pdfrwt>
<totfact> 0.48819234E+02</totfact>
</mgrwt>
</event>
<event>
 4      1 +1.5204000e-02 1.07837900e+03 7.81860800e-03 9.22652500e-02
       -1 -1    0    0    0  501 -0.0000000000e+00 +0.0000000000e+00 +2.6558303634e+02 2.6558303634e+02 0.0000000000e+00 0.0000e+00 1.0000e+00
        1 -1    0    0  501    0 +0.0000000000e+00 -0.0000000000e+00 -1.0946686916e+03 1.0946686916e+03 0.0000000000e+00 0.0000e+00 -1.0000e+00
     -556  1    1    2    0    0 +3.7902338822e+02 -2.4477638544e+01 -2.9607937323e+00 4.2926291466e+02 2.0000000000e+02 0.0000e+00 1.0000e+00
      556  1    1    2    0    0 -3.7902338822e+02 +2.4477638544e+01 -8.2612486152e+02 9.3098881327e+02 2.0000000000e+02 0.0000e+00 -1.0000e+00
<mgrwt>
<rscale>  0 0.10783792E+04</rscale>
<asrwt>0</asrwt>
<pdfrwt beam="2">  1        1 0.16841057E+00 0.10783792E+04</pdfrwt>
<pdfrwt beam="1">  1       -1 0.40858927E-01 0.10783792E+04</pdfrwt>
<totfact> 0.74745008E+01</totfact>
</mgrwt>
</event>
<event>
 4      1 +1.5204000e-02 1.42282100e+03 7.81860800e-03 8.93746300e-02
       -2 -1    0    0    0  501 -0.0000000000e+00 +0.0000000000e+00 +1.3598278227e+03 1.3598278227e+03 0.0000000000e+00 0.0000e+00 1.0000e+00
        2 -1    0    0  501    0 +0.0000000000e+00 -0.0000000000e+00 -3.7218327626e+02 3.7218327626e+02 0.0000000000e+00 0.0000e+00 -1.0000e+00
     -556  1    1    2    0    0 +7.3373955282e+01 +4.1294861153e+02 +1.1495826326e+03 1.2399397253e+03 2.0000000000e+02 0.0000e+00 1.0000e+00
      556  1    1    2    0    0 -7.3373955282e+01 -4.1294861153e+02 -1.6193808616e+02 4.9207137371e+02 2.0000000000e+02 0.0000e+00 -1.0000e+00
<mgrwt>
<rscale>  0 0.14228214E+04</rscale>
<asrwt>0</asrwt>
<pdfrwt beam="2">  1        2 0.57258966E-01 0.14228214E+04</pdfrwt>
<pdfrwt beam="1">  1       -2 0.20920428E+00 0.14228214E+04</pdfrwt>
<totfact> 0.97029705E+00</totfact>
</mgrwt>
</event>
<event>
 4      1 +1.5204000e-02 7.79094900e+02 7.81860800e-03 9.59077900e-02
       -2 -1    0    0    0  501 -0.0000000000e+00 +0.0000000000e+00 +6.6779682131e+01 6.6779682131e+01 0.0000000000e+00 0.0000e+00 1.0000e+00
        2 -1    0    0  501    0 +0.0000000000e+00 -0.0000000000e+00 -2.2723563279e+03 2.2723563279e+03 0.0000000000e+00 0.0000e+00 -1.0000e+00
     -556  1    1    2    0    0 +1.7478012811e+02 -1.2220057737e+02 -1.8756663978e+03 1.8983164937e+03 2.0000000000e+02 0.0000e+00 -1.0000e+00
      556  1    1    2    0    0 -1.7478012811e+02 +1.2220057737e+02 -3.2991024796e+02 4.4081951636e+02 2.0000000000e+02 0.0000e+00 1.0000e+00
<mgrwt>
<rscale>  0 0.77909494E+03</rscale>
<asrwt>0</asrwt>
<pdfrwt beam="2">  1        2 0.34959327E+00 0.77909494E+03</pdfrwt>
<pdfrwt beam="1">  1       -2 0.10273798E-01 0.77909494E+03</pdfrwt>
<totfact> 0.31752192E+02</totfact>
</mgrwt>
</event>
<event>
 4      1 +1.5204000e-02 6.16158300e+02 7.81860800e-03 9.87243800e-02
        2 -1    0    0  501    0 +0.0000000000e+00 +0.0000000000e+00 +6.0055560669e+02 6.0055560669e+02 0.0000000000e+00 0.0000e+00 1.0000e+00
       -2 -1    0    0    0  501 -0.0000000000e+00 -0.0000000000e+00 -1.5804160477e+02 1.5804160477e+02 0.0000000000e+00 0.0000e+00 -1.0000e+00
     -556  1    1    2    0    0 -2.2484124782e+02 -6.5639477005e+01 +2.3001860539e+02 3.8440952966e+02 2.0000000000e+02 0.0000e+00 1.0000e+00
      556  1    1    2    0    0 +2.2484124782e+02 +6.5639477005e+01 +2.1249539653e+02 3.7418768180e+02 2.0000000000e+02 0.0000e+00 -1.0000e+00
<mgrwt>
<rscale>  0 0.61615833E+03</rscale>
<asrwt>0</asrwt>
<pdfrwt beam="1">  1        2 0.92393169E-01 0.61615833E+03</pdfrwt>
<pdfrwt beam="2">  1       -2 0.24314093E-01 0.61615833E+03</pdfrwt>
<totfact> 0.75057903E+02</totfact>
</mgrwt>
</event>
<event>
 4      1 +1.5204000e-02 4.91045000e+02 7.81860800e-03 1.01614300e-01
        2 -1    0    0  501    0 +0.0000000000e+00 +0.0000000000e+00 +1.5848417133e+03 1.5848417133e+03 0.0000000000e+00 0.0000e+00 -1.0000e+00
       -2 -1    0    0    0  501 -0.0000000000e+00 -0.0000000000e+00 -3.8036162323e+01 3.8036162323e+01 0.0000000000e+00 0.0000e+00 1.0000e+00
     -556  1    1    2    0    0 -3.5725093809e+01 -1.1540795965e+02 +5.2419095647e+02 5.7390891117e+02 2.0000000000e+02 0.0000e+00 -1.0000e+00
      556  1    1    2    0    0 +3.5725093809e+01 +1.1540795965e+02 +1.0226145945e+03 1.0489689644e+03 2.0000000000e+02 0.0000e+00 1.0000e+00
<mgrwt>
<rscale>  0 0.49104499E+03</rscale>
<asrwt>0</asrwt>
<pdfrwt beam="1">  1        2 0.24382175E+00 0.49104499E+03</pdfrwt>
<pdfrwt beam="2">  1       -2 0.58517185E-02 0.49104499E+03</pdfrwt>
<totfact> 0.18768222E+03</totfact>
</mgrwt>
</event>
<event>
 4      1 +1.5204000e-02 5.54962000e+02 7.81860800e-03 1.00035200e-01
       -1 -1    0    0    0  501 -0.0000000000e+00 +0.0000000000e+00 +2.1043356828e+02 2.1043356828e+02 0.0000000000e+00 0.0000e+00 1.0000e+00
        1 -1    0    0  501    0 +0.0000000000e+00 -0.0000000000e+00 -3.6589075926e+02 3.6589075926e+02 0.0000000000e+00 0.0000e+00 -1.0000e+00
     -556  1    1    2    0    0 +1.4261621480e+02 -1.0788998211e+02 -1.5127904116e+02 3.0800159294e+02 2.0000000000e+02 0.0000e+00 -1.0000e+00
      556  1    1    2    0    0 -1.4261621480e+02 +1.0788998211e+02 -4.1781498291e+00 2.6832273459e+02 2.0000000000e+02 0.0000e+00 1.0000e+00
<mgrwt>
<rscale>  0 0.55496197E+03</rscale>
<asrwt>0</asrwt>
<pdfrwt beam="2">  1        1 0.56290885E-01 0.55496197E+03</pdfrwt>
<pdfrwt beam="1">  1       -1 0.32374395E-01 0.55496197E+03</pdfrwt>
<totfact> 0.60784743E+02</totfact>
</mgrwt>
</event>
<event>
 4      1 +1.5204000e-02 7.82965500e+02 7.81860800e-03 9.58500600e-02
       -2 -1    0    0    0  501 -0.0000000000e+00 +0.0000000000e+00 +7.2635217877e+01 7.2635217877e+01 0.0000000000e+00 0.0000e+00 1.0000e+00
        2 -1    0    0  501    0 +0.0000000000e+00 -0.0000000000e+00 -2.1099785306e+03 2.1099785306e+03 0.0000000000e+00 0.0000e+00 -1.0000e+00
     -556  1    1    2    0    0 +1.5905792618e+02 +1.5078505844e+02 -3.0674496222e+02 4.2676460675e+02 2.0000000000e+02 0.0000e+00 1.0000e+00
      556  1    1    2    0    0 -1.5905792618e+02 -1.5078505844e+02 -1.7305983505e+03 1.7558491417e+03 2.0000000000e+02 0.0000e+00 -1.0000e+00
<mgrwt>
<rscale>  0 0.78296552E+03</rscale>
<asrwt>0</asrwt>
<pdfrwt beam="2">  1        2 0.32461207E+00 0.78296552E+03</pdfrwt>
<pdfrwt beam="1">  1       -2 0.11174649E-01 0.78296552E+03</pdfrwt>
<totfact> 0.33993488E+02</totfact>
</mgrwt>
</event>
<event>
 4      1 +1.5204000e-02 7.50861200e+02 7.81860800e-03 9.63400000e-02
       -2 -1    0    0    0  501 -0.0000000000e+00 +0.0000000000e+00 +1.1151926404e+03 1.1151926404e+03 0.0000000000e+00 0.0000e+00 1.0000e+00
        2 -1    0    0  501    0 +0.0000000000e+00 -0.0000000000e+00 -1.2638906137e+02 1.2638906137e+02 0.0000000000e+00 0.0000e+00 -1.0000e+00
     -556  1    1    2    0    0 -1.8659728168e+02 -1.4868157733e+02 +8.4134418870e+02 8.9709798842e+02 2.0000000000e+02 0.0000e+00 1.0000e+00
      556  1    1    2    0    0 +1.8659728168e+02 +1.4868157733e+02 +1.4745939034e+02 3.4448371336e+02 2.0000000000e+02 0.0000e+00 -1.0000e+00
<mgrwt>
<rscale>  0 0.75086124E+03</rscale>
<asrwt>0</asrwt>
<pdfrwt beam="2">  1        2 0.19444472E-01 0.75086124E+03</pdfrwt>
<pdfrwt beam="1">  1       -2 0.17156809E+00 0.75086124E+03</pdfrwt>
<totfact> 0.61816184E+01</totfact>
</mgrwt>
</event>
<event>
 4      1 +1.5204000e-02 4.20622500e+02 7.81860800e-03 1.03686400e-01
       -2 -1    0    0    0  501 -0.0000000000e+00 +0.0000000000e+00 +2.1855691573e+01 2.1855691573e+01 0.0000000000e+00 0.0000e+00 1.0000e+00
        2 -1    0    0  501    0 +0.0000000000e+00 -0.0000000000e+00 -2.0237667599e+03 2.0237667599e+03 0.0000000000e+00 0.0000e+00 -1.0000e+00
     -556  1    1    2    0    0 -1.1000902195e+01 +5.4836877395e+01 -8.3945817009e+02 8.6476477860e+02 2.0000000000e+02 0.0000e+00 1.0000e+00
      556  1    1    2    0    0 +1.1000902195e+01 -5.4836877395e+01 -1.1624528982e+03 1.1808576729e+03 2.0000000000e+02 0.0000e+00 -1.0000e+00
<mgrwt>
<rscale>  0 0.42062250E+03</rscale>
<asrwt>0</asrwt>
<pdfrwt beam="2">  1        2 0.31134873E+00 0.42062250E+03</pdfrwt>
<pdfrwt beam="1">  1       -2 0.33624141E-02 0.42062250E+03</pdfrwt>
<totfact> 0.25588863E+03</totfact>
</mgrwt>
</event>
<event>
 4      1 +1.5204000e-02 4.52021300e+02 7.81860800e-03 1.02712100e-01
       -2 -1    0    0    0  501 -0.0000000000e+00 +0.0000000000e+00 +3.9730154130e+01 3.9730154130e+01 0.0000000000e+00 0.0000e+00 1.0000e+00
        2 -1    0    0  501    0 +0.0000000000e+00 -0.0000000000e+00 -1.2856937385e+03 1.2856937385e+03 0.0000000000e+00 0.0000e+00 -1.0000e+00
     -556  1    1    2    0    0 -5.9350223663e+01 -5.2045859397e+01 -8.2717834958e+02 8.5466674356e+02 2.0000000000e+02 0.0000e+00 1.0000e+00
      556  1    1    2    0    0 +5.9350223663e+01 +5.2045859397e+01 -4.1878523484e+02 4.7075714912e+02 2.0000000000e+02 0.0000e+00 -1.0000e+00
<mgrwt>
<rscale>  0 0.45202128E+03</rscale>
<asrwt>0</asrwt>
<pdfrwt beam="2">  1        2 0.19779904E+00 0.45202128E+03</pdfrwt>
<pdfrwt beam="1">  1       -2 0.61123313E-02 0.45202128E+03</pdfrwt>
<totfact> 0.25701022E+03</totfact>
</mgrwt>
</event>
<event>
 4      1 +1.5204000e-02 7.38395100e+02 7.81860800e-03 9.65373500e-02
       -1 -1    0    0    0  501 -0.0000000000e+00 +0.0000000000e+00 +2.3853226388e+02 2.3853226388e+02 0.0000000000e+00 0.0000e+00 1.0000e+00
        1 -1    0    0  501    0 +0.0000000000e+00 -0.0000000000e+00 -5.7143984110e+02 5.7143984110e+02 0.0000000000e+00 0.0000e+00 -1.0000e+00
     -556  1    1    2    0    0 +2.2473045245e+02 +1.8061637044e+02 -2.9239038584e+02 4.5674739984e+02 2.0000000000e+02 0.0000e+00 1.0000e+00
      556  1    1    2    0    0 -2.2473045245e+02 -1.8061637044e+02 -4.0517191376e+01 3.5322470515e+02 2.0000000000e+02 0.0000e+00 -1.0000e+00
<mgrwt>
<rscale>  0 0.73839512E+03</rscale>
<asrwt>0</asrwt>
<pdfrwt beam="2">  1        1 0.87913819E-01 0.73839512E+03</pdfrwt>
<pdfrwt beam="1">  1       -1 0.36697272E-01 0.73839512E+03</pdfrwt>
<totfact> 0.26483989E+02</totfact>
</mgrwt>
</event>
<event>
 4      1 +1.5204000e-02 5.03963300e+02 7.81860800e-03 1.01275000e-01
       -4 -1    0    0    0  501 -0.0000000000e+00 +0.0000000000e+00 +6.1203919468e+02 6.1203919468e+02 0.0000000000e+00 0.0000e+00 -1.0000e+00
        4 -1    0    0  501    0 +0.0000000000e+00 -0.0000000000e+00 -1.0374294845e+02 1.0374294845e+02 0.0000000000e+00 0.0000e+00 1.0000e+00
     -556  1    1    2    0    0 +1.6144693290e+01 +1.4297472130e+01 +3.8609094257e+01 2.0483098152e+02 2.0000000000e+02 0.0000e+00 1.0000e+00
      556  1    1    2    0    0 -1.6144693290e+01 -1.4297472130e+01 +4.6968715197e+02 5.1095116161e+02 2.0000000000e+02 0.0000e+00 -1.0000e+00
<mgrwt>
<rscale>  0 0.50396329E+03</rscale>
<asrwt>0</asrwt>
<pdfrwt beam="2">  1        4 0.15960454E-01 0.50396329E+03</pdfrwt>
<pdfrwt beam="1">  1       -4 0.94159874E-01 0.50396329E+03</pdfrwt>
<totfact> 0.64740466E+01</totfact>
</mgrwt>
</event>
<event>
 4      1 +1.5204000e-02 7.79819000e+02 7.81860800e-03 9.58969700e-02
       -1 -1    0    0    0  501 -0.0000000000e+00 +0.0000000000e+00 +5.5757697996e+02 5.5757697996e+02 0.0000000000e+00 0.0000e+00 1.0000e+00
        1 -1    0    0  501    0 +0.0000000000e+00 -0.0000000000e+00 -2.7266087958e+02 2.7266087958e+02 0.0000000000e+00 0.0000e+00 -1.0000e+00
     -556  1    1    2    0    0 -2.8312235684e+00 -4.2862251586e+01 +4.9585959826e+02 5.3639717526e+02 2.0000000000e+02 0.0000e+00 1.0000e+00
      556  1    1    2    0    0 +2.8312235684e+00 +4.2862251586e+01 -2.1094349788e+02 2.9384068427e+02 2.0000000000e+02 0.0000e+00 -1.0000e+00
<mgrwt>
<rscale>  0 0.77981903E+03</rscale>
<asrwt>0</asrwt>
<pdfrwt beam="2">  1        1 0.41947828E-01 0.77981903E+03</pdfrwt>
<pdfrwt beam="1">  1       -1 0.85781073E-01 0.77981903E+03</pdfrwt>
<totfact> 0.13506223E+02</totfact>
</mgrwt>
</event>
<event>
 4      1 +1.5204000e-02 4.82560200e+02 7.81860800e-03 1.01843400e-01
       -1 -1    0    0    0  501 -0.0000000000e+00 +0.0000000000e+00 +3.1258197192e+02 3.1258197192e+02 0.0000000000e+00 0.0000e+00 1.0000e+00
        1 -1    0    0  501    0 +0.0000000000e+00 -0.0000000000e+00 -1.8624261495e+02 1.8624261495e+02 0.0000000000e+00 0.0000e+00 -1.0000e+00
     -556  1    1    2    0    0 -1.6823838733e+01 -5.4485053887e+01 -6.3282502401e+01 2.1738522893e+02 2.0000000000e+02 0.0000e+00 -1.0000e+00
      556  1    1    2    0    0 +1.6823838733e+01 +5.4485053887e+01 +1.8962185937e+02 2.8143935794e+02 2.0000000000e+02 0.0000e+00 1.0000e+00
<mgrwt>
<rscale>  0 0.48256019E+03</rscale>
<asrwt>0</asrwt>
<pdfrwt beam="2">  1        1 0.28652710E-01 0.48256019E+03</pdfrwt>
<pdfrwt beam="1">  1       -1 0.48089534E-01 0.48256019E+03</pdfrwt>
<totfact> 0.71082620E+02</totfact>
</mgrwt>
</event>
<event>
 4      1 +1.5204000e-02 6.49493400e+02 7.81860800e-03 9.80773000e-02
       -2 -1    0    0    0  501 -0.0000000000e+00 +0.0000000000e+00 +6.3786490404e+01 6.3786490404e+01 0.0000000000e+00 0.0000e+00 1.0000e+00
        2 -1    0    0  501    0 +0.0000000000e+00 -0.0000000000e+00 -1.6533349691e+03 1.6533349691e+03 0.0000000000e+00 0.0000e+00 -1.0000e+00
     -556  1    1    2    0    0 +1.6856052625e+01 +1.5740342022e+02 -1.3261716817e+03 1.3504781718e+03 2.0000000000e+02 0.0000e+00 -1.0000e+00
      556  1    1    2    0    0 -1.6856052625e+01 -1.5740342022e+02 -2.6337679698e+02 3.6664328768e+02 2.0000000000e+02 0.0000e+00 1.0000e+00
<mgrwt>
<rscale>  0 0.64949345E+03</rscale>
<asrwt>0</asrwt>
<pdfrwt beam="2">  1        2 0.25435926E+00 0.64949345E+03</pdfrwt>
<pdfrwt beam="1">  1       -2 0.98133050E-02 0.64949345E+03</pdfrwt>
<totfact> 0.75230163E+02</totfact>
</mgrwt>
</event>
<event>
 4      1 +1.5204000e-02 4.87874500e+02 7.81860800e-03 1.01699300e-01
       -1 -1    0    0    0  501 -0.0000000000e+00 +0.0000000000e+00 +1.3027120786e+02 1.3027120786e+02 0.0000000000e+00 0.0000e+00 1.0000e+00
        1 -1    0    0  501    0 +0.0000000000e+00 -0.0000000000e+00 -4.5678073298e+02 4.5678073298e+02 0.0000000000e+00 0.0000e+00 -1.0000e+00
     -556  1    1    2    0    0 -4.7865195957e+01 -3.2696656559e+01 -1.0360730051e+01 2.0848859216e+02 2.0000000000e+02 0.0000e+00 1.0000e+00
      556  1    1    2    0    0 +4.7865195957e+01 +3.2696656559e+01 -3.1614879507e+02 3.7856334867e+02 2.0000000000e+02 0.0000e+00 -1.0000e+00
<mgrwt>
<rscale>  0 0.48787448E+03</rscale>
<asrwt>0</asrwt>
<pdfrwt beam="2">  1        1 0.70273959E-01 0.48787448E+03</pdfrwt>
<pdfrwt beam="1">  1       -1 0.20041724E-01 0.48787448E+03</pdfrwt>
<totfact> 0.10255790E+03</totfact>
</mgrwt>
</event>
<event>
 4      1 +1.5204000e-02 9.81822600e+02 7.81860800e-03 9.32870900e-02
        2 -1    0    0  501    0 +0.0000000000e+00 +0.0000000000e+00 +1.3796673280e+02 1.3796673280e+02 0.0000000000e+00 0.0000e+00 -1.0000e+00
       -2 -1    0    0    0  501 -0.0000000000e+00 -0.0000000000e+00 -1.7467535532e+03 1.7467535532e+03 0.0000000000e+00 0.0000e+00 1.0000e+00
     -556  1    1    2    0    0 -3.3316874762e+02 -1.3629580576e+02 -2.9140043450e+02 5.0447217394e+02 2.0000000000e+02 0.0000e+00 -1.0000e+00
      556  1    1    2    0    0 +3.3316874762e+02 +1.3629580576e+02 -1.3173863859e+03 1.3802481121e+03 2.0000000000e+02 0.0000e+00 1.0000e+00
<mgrwt>
<rscale>  0 0.98182255E+03</rscale>
<asrwt>0</asrwt>
<pdfrwt beam="1">  1        2 0.21225651E-01 0.98182255E+03</pdfrwt>
<pdfrwt beam="2">  1       -2 0.26873132E+00 0.98182255E+03</pdfrwt>
<totfact> 0.13219165E+01</totfact>
</mgrwt>
</event>
<event>
 4      1 +1.5204000e-02 5.16532800e+02 7.81860800e-03 1.00955100e-01
        2 -1    0    0  501    0 +0.0000000000e+00 +0.0000000000e+00 +6.8428885829e+02 6.8428885829e+02 0.0000000000e+00 0.0000e+00 -1.0000e+00
       -2 -1    0    0    0  501 -0.0000000000e+00 -0.0000000000e+00 -9.7475700830e+01 9.7475700830e+01 0.0000000000e+00 0.0000e+00 1.0000e+00
     -556  1    1    2    0    0 +1.2525598472e+02 -3.4352126337e+01 +1.4333171398e+02 2.7823211627e+02 2.0000000000e+02 0.0000e+00 1.0000e+00
      556  1    1    2    0    0 -1.2525598472e+02 +3.4352126337e+01 +4.4348144349e+02 5.0353244286e+02 2.0000000000e+02 0.0000e+00 -1.0000e+00
<mgrwt>
<rscale>  0 0.51653281E+03</rscale>
<asrwt>0</asrwt>
<pdfrwt beam="1">  1        2 0.10527521E+00 0.51653281E+03</pdfrwt>
<pdfrwt beam="2">  1       -2 0.14996262E-01 0.51653281E+03</pdfrwt>
<totfact> 0.14802759E+03</totfact>
</mgrwt>
</event>
<event>
 4      1 +1.5204000e-02 8.86489400e+02 7.81860800e-03 9.44263000e-02
        2 -1    0    0  501    0 +0.0000000000e+00 +0.0000000000e+00 +1.0307210615e+03 1.0307210615e+03 0.0000000000e+00 0.0000e+00 1.0000e+00
       -2 -1    0    0    0  501 -0.0000000000e+00 -0.0000000000e+00 -1.9061012821e+02 1.9061012821e+02 0.0000000000e+00 0.0000e+00 -1.0000e+00
     -556  1    1    2    0    0 -1.8557505128e+02 -3.4878283131e+02 +4.4685234122e+02 6.2909822598e+02 2.0000000000e+02 0.0000e+00 -1.0000e+00
      556  1    1    2    0    0 +1.8557505128e+02 +3.4878283131e+02 +3.9325859205e+02 5.9223296370e+02 2.0000000000e+02 0.0000e+00 1.0000e+00
<mgrwt>
<rscale>  0 0.88648942E+03</rscale>
<asrwt>0</asrwt>
<pdfrwt beam="1">  1        2 0.15857247E+00 0.88648942E+03</pdfrwt>
<pdfrwt beam="2">  1       -2 0.29324636E-01 0.88648942E+03</pdfrwt>
<totfact> 0.25798433E+02</totfact>
</mgrwt>
</event>
<event>
 4      1 +1.5204000e-02 5.76059800e+02 7.81860800e-03 9.95635800e-02
       -1 -1    0    0    0  501 -0.0000000000e+00 +0.0000000000e+00 +2.1857076594e+02 2.1857076594e+02 0.0000000000e+00 0.0000e+00 1.0000e+00
        1 -1    0    0  501    0 +0.0000000000e+00 -0.0000000000e+00 -3.7956230433e+02 3.7956230433e+02 0.0000000000e+00 0.0000e+00 -1.0000e+00
     -556  1    1    2    0    0 -1.7216420990e+02 +9.6087849676e+01 -1.4109716442e+01 2.8119828258e+02 2.0000000000e+02 0.0000e+00 -1.0000e+00
      556  1    1    2    0    0 +1.7216420990e+02 -9.6087849676e+01 -1.4688182195e+02 3.1693478769e+02 2.0000000000e+02 0.0000e+00 1.0000e+00
<mgrwt>
<rscale>  0 0.57605980E+03</rscale>
<asrwt>0</asrwt>
<pdfrwt beam="2">  1        1 0.58394200E-01 0.57605980E+03</pdfrwt>
<pdfrwt beam="1">  1       -1 0.33626272E-01 0.57605980E+03</pdfrwt>
<totfact> 0.54178859E+02</totfact>
</mgrwt>
</event>
<event>
 4      1 +1.5204000e-02 7.33941400e+02 7.81860800e-03 9.66088600e-02
       -1 -1    0    0    0  501 -0.0000000000e+00 +0.0000000000e+00 +2.0942893225e+02 2.0942893225e+02 0.0000000000e+00 0.0000e+00 1.0000e+00
        1 -1    0    0  501    0 +0.0000000000e+00 -0.0000000000e+00 -6.4302241029e+02 6.4302241029e+02 0.0000000000e+00 0.0000e+00 -1.0000e+00
     -556  1    1    2    0    0 -2.6887335882e+02 -1.2749409647e+02 -1.2593537009e+02 3.8000966456e+02 2.0000000000e+02 0.0000e+00 -1.0000e+00
      556  1    1    2    0    0 +2.6887335882e+02 +1.2749409647e+02 -3.0765810794e+02 4.7244167799e+02 2.0000000000e+02 0.0000e+00 1.0000e+00
<mgrwt>
<rscale>  0 0.73394141E+03</rscale>
<asrwt>0</asrwt>
<pdfrwt beam="2">  1        1 0.98926525E-01 0.73394141E+03</pdfrwt>
<pdfrwt beam="1">  1       -1 0.32219836E-01 0.73394141E+03</pdfrwt>
<totfact> 0.28151941E+02</totfact>
</mgrwt>
</event>
<event>
 4      1 +1.5204000e-02 4.84805500e+02 7.81860800e-03 1.01782300e-01
        2 -1    0    0  501    0 +0.0000000000e+00 +0.0000000000e+00 +8.3772391002e+01 8.3772391002e+01 0.0000000000e+00 0.0000e+00 -1.0000e+00
       -2 -1    0    0    0  501 -0.0000000000e+00 -0.0000000000e+00 -7.0141349466e+02 7.0141349466e+02 0.0000000000e+00 0.0000e+00 1.0000e+00
     -556  1    1    2    0    0 +4.6201389492e+01 -1.1455484128e+02 -2.1298099822e+02 3.1720385504e+02 2.0000000000e+02 0.0000e+00 -1.0000e+00
      556  1    1    2    0    0 -4.6201389492e+01 +1.1455484128e+02 -4.0466010544e+02 4.6798203062e+02 2.0000000000e+02 0.0000e+00 1.0000e+00
<mgrwt>
<rscale>  0 0.48480547E+03</rscale>
<asrwt>0</asrwt>
<pdfrwt beam="1">  1        2 0.12888060E-01 0.48480547E+03</pdfrwt>
<pdfrwt beam="2">  1       -2 0.10790977E+00 0.48480547E+03</pdfrwt>
<totfact> 0.33649394E+02</totfact>
</mgrwt>
</event>
<event>
 4      1 +1.5204000e-02 4.92656800e+02 7.81860800e-03 1.01571400e-01
       -2 -1    0    0    0  501 -0.0000000000e+00 +0.0000000000e+00 +2.0561187783e+01 2.0561187783e+01 0.0000000000e+00 0.0000e+00 1.0000e+00
        2 -1    0    0  501    0 +0.0000000000e+00 -0.0000000000e+00 -2.9510788117e+03 2.9510788117e+03 0.0000000000e+00 0.0000e+00 -1.0000e+00
     -556  1    1    2    0    0 -1.2569926132e+02 -5.4777313794e+01 -1.2039441119e+03 1.2281214447e+03 2.0000000000e+02 0.0000e+00 1.0000e+00
      556  1    1    2    0    0 +1.2569926132e+02 +5.4777313794e+01 -1.7265735121e+03 1.7435185548e+03 2.0000000000e+02 0.0000e+00 -1.0000e+00
<mgrwt>
<rscale>  0 0.49265682E+03</rscale>
<asrwt>0</asrwt>
<pdfrwt beam="2">  1        2 0.45401221E+00 0.49265682E+03</pdfrwt>
<pdfrwt beam="1">  1       -2 0.31632591E-02 0.49265682E+03</pdfrwt>
<totfact> 0.84326197E+02</totfact>
</mgrwt>
</event>
<event>
 4      1 +1.5204000e-02 4.29103400e+02 7.81860800e-03 1.03414400e-01
       -2 -1    0    0    0  501 -0.0000000000e+00 +0.0000000000e+00 +4.7299839396e+01 4.7299839396e+01 0.0000000000e+00 0.0000e+00 -1.0000e+00
        2 -1    0    0  501    0 +0.0000000000e+00 -0.0000000000e+00 -9.7320460097e+02 9.7320460097e+02 0.0000000000e+00 0.0000e+00 1.0000e+00
     -556  1    1    2    0    0 -6.9784120271e+01 -1.7685509235e+01 -3.9362311001e+02 4.4734969924e+02 2.0000000000e+02 0.0000e+00 1.0000e+00
      556  1    1    2    0    0 +6.9784120271e+01 +1.7685509235e+01 -5.3228165156e+02 5.7315474112e+02 2.0000000000e+02 0.0000e+00 -1.0000e+00
<mgrwt>
<rscale>  0 0.42910335E+03</rscale>
<asrwt>0</asrwt>
<pdfrwt beam="2">  1        2 0.14972378E+00 0.42910335E+03</pdfrwt>
<pdfrwt beam="1">  1       -2 0.72768987E-02 0.42910335E+03</pdfrwt>
<totfact> 0.30032175E+03</totfact>
</mgrwt>
</event>
<event>
 4      1 +1.5204000e-02 4.30492000e+02 7.81860800e-03 1.03370500e-01
        1 -1    0    0  501    0 +0.0000000000e+00 +0.0000000000e+00 +5.3752786781e+01 5.3752786781e+01 0.0000000000e+00 0.0000e+00 -1.0000e+00
       -1 -1    0    0    0  501 -0.0000000000e+00 -0.0000000000e+00 -8.6192430660e+02 8.6192430660e+02 0.0000000000e+00 0.0000e+00 1.0000e+00
     -556  1    1    2    0    0 +5.7330359321e+01 +4.4463680238e+01 -3.3460435897e+02 3.9651464791e+02 2.0000000000e+02 0.0000e+00 -1.0000e+00
      556  1    1    2    0    0 -5.7330359321e+01 -4.4463680238e+01 -4.7356716084e+02 5.1916244547e+02 2.0000000000e+02 0.0000e+00 1.0000e+00
<mgrwt>
<rscale>  0 0.43049197E+03</rscale>
<asrwt>0</asrwt>
<pdfrwt beam="1">  1        1 0.82696595E-02 0.43049197E+03</pdfrwt>
<pdfrwt beam="2">  1       -1 0.13260374E+00 0.43049197E+03</pdfrwt>
<totfact> 0.42984111E+02</totfact>
</mgrwt>
</event>
<event>
 4      1 +1.5204000e-02 5.92814200e+02 7.81860800e-03 9.92042800e-02
       -1 -1    0    0    0  501 -0.0000000000e+00 +0.0000000000e+00 +2.7363388767e+02 2.7363388767e+02 0.0000000000e+00 0.0000e+00 1.0000e+00
        1 -1    0    0  501    0 +0.0000000000e+00 -0.0000000000e+00 -3.2107556580e+02 3.2107556580e+02 0.0000000000e+00 0.0000e+00 -1.0000e+00
     -556  1    1    2    0    0 -8.4151405049e+01 +6.1767802266e+01 -2.1658645758e+02 3.1274017007e+02 2.0000000000e+02 0.0000e+00 -1.0000e+00
      556  1    1    2    0    0 +8.4151405049e+01 -6.1767802266e+01 +1.6914477944e+02 2.8196928340e+02 2.0000000000e+02 0.0000e+00 1.0000e+00
<mgrwt>
<rscale>  0 0.59281415E+03</rscale>
<asrwt>0</asrwt>
<pdfrwt beam="2">  1        1 0.49396241E-01 0.59281415E+03</pdfrwt>
<pdfrwt beam="1">  1       -1 0.42097521E-01 0.59281415E+03</pdfrwt>
<totfact> 0.45005604E+02</totfact>
</mgrwt>
</event>
<event>
 4      1 +1.5204000e-02 7.22674200e+02 7.81860800e-03 9.67922300e-02
        1 -1    0    0  501    0 +0.0000000000e+00 +0.0000000000e+00 +8.4722321780e+02 8.4722321780e+02 0.0000000000e+00 0.0000e+00 -1.0000e+00
       -1 -1    0    0    0  501 -0.0000000000e+00 -0.0000000000e+00 -1.5410872450e+02 1.5410872450e+02 0.0000000000e+00 0.0000e+00 1.0000e+00
     -556  1    1    2    0    0 -5.7766712397e+01 -1.2424548331e+02 -2.4695090580e+01 2.4368787554e+02 2.0000000000e+02 0.0000e+00 1.0000e+00
      556  1    1    2    0    0 +5.7766712397e+01 +1.2424548331e+02 +7.1780958388e+02 7.5764406676e+02 2.0000000000e+02 0.0000e+00 -1.0000e+00
<mgrwt>
<rscale>  0 0.72267417E+03</rscale>
<asrwt>0</asrwt>
<pdfrwt beam="1">  1        1 0.13034203E+00 0.72267417E+03</pdfrwt>
<pdfrwt beam="2">  1       -1 0.23709035E-01 0.72267417E+03</pdfrwt>
<totfact> 0.31227144E+02</totfact>
</mgrwt>
</event>
<event>
 4      1 +1.5204000e-02 5.45364900e+02 7.81860800e-03 1.00257300e-01
       -2 -1    0    0    0  501 -0.0000000000e+00 +0.0000000000e+00 +5.8381282385e+01 5.8381282385e+01 0.0000000000e+00 0.0000e+00 1.0000e+00
        2 -1    0    0  501    0 +0.0000000000e+00 -0.0000000000e+00 -1.2736223855e+03 1.2736223855e+03 0.0000000000e+00 0.0000e+00 -1.0000e+00
     -556  1    1    2    0    0 +9.0527730548e+01 -9.5908092287e+01 -2.8952487226e+02 3.7579021251e+02 2.0000000000e+02 0.0000e+00 1.0000e+00
      556  1    1    2    0    0 -9.0527730548e+01 +9.5908092287e+01 -9.2571623088e+02 9.5621345539e+02 2.0000000000e+02 0.0000e+00 -1.0000e+00
<mgrwt>
<rscale>  0 0.54536486E+03</rscale>
<asrwt>0</asrwt>
<pdfrwt beam="2">  1        2 0.19594191E+00 0.54536486E+03</pdfrwt>
<pdfrwt beam="1">  1       -2 0.89817357E-02 0.54536486E+03</pdfrwt>
<totfact> 0.14184771E+03</totfact>
</mgrwt>
</event>
<event>
 4      1 +1.5204000e-02 7.43465300e+02 7.81860800e-03 9.64565800e-02
       -2 -1    0    0    0  501 -0.0000000000e+00 +0.0000000000e+00 +5.0961013273e+02 5.0961013273e+02 0.0000000000e+00 0.0000e+00 1.0000e+00
        2 -1    0    0  501    0 +0.0000000000e+00 -0.0000000000e+00 -2.7115857611e+02 2.7115857611e+02 0.0000000000e+00 0.0000e+00 -1.0000e+00
     -556  1    1    2    0    0 -2.6484693172e+02 -1.6025672704e+02 +1.7023275180e+02 4.0596219724e+02 2.0000000000e+02 0.0000e+00 1.0000e+00
      556  1    1    2    0    0 +2.6484693172e+02 +1.6025672704e+02 +6.8218804821e+01 3.7480651159e+02 2.0000000000e+02 0.0000e+00 -1.0000e+00
<mgrwt>
<rscale>  0 0.74346529E+03</rscale>
<asrwt>0</asrwt>
<pdfrwt beam="2">  1        2 0.41716704E-01 0.74346529E+03</pdfrwt>
<pdfrwt beam="1">  1       -2 0.78401559E-01 0.74346529E+03</pdfrwt>
<totfact> 0.17937735E+02</totfact>
</mgrwt>
</event>
<event>
 4      1 +1.5204000e-02 5.99282700e+02 7.81860800e-03 9.90689500e-02
        2 -1    0    0  501    0 +0.0000000000e+00 +0.0000000000e+00 +1.9142419950e+03 1.9142419950e+03 0.0000000000e+00 0.0000e+00 -1.0000e+00
       -2 -1    0    0    0  501 -0.0000000000e+00 -0.0000000000e+00 -4.6903651327e+01 4.6903651327e+01 0.0000000000e+00 0.0000e+00 1.0000e+00
     -556  1    1    2    0    0 +6.3298060790e+01 -2.1057457611e+02 +8.0963182752e+02 8.6246854594e+02 2.0000000000e+02 0.0000e+00 1.0000e+00
      556  1    1    2    0    0 -6.3298060790e+01 +2.1057457611e+02 +1.0577065162e+03 1.0986771004e+03 2.0000000000e+02 0.0000e+00 -1.0000e+00
<mgrwt>
<rscale>  0 0.59928270E+03</rscale>
<asrwt>0</asrwt>
<pdfrwt beam="1">  1        2 0.29449871E+00 0.59928270E+03</pdfrwt>
<pdfrwt beam="2">  1       -2 0.72159478E-02 0.59928270E+03</pdfrwt>
<totfact> 0.89124976E+02</totfact>
</mgrwt>
</event>
<event>
 4      1 +1.5204000e-02 5.14936900e+02 7.81860800e-03 1.00995200e-01
        1 -1    0    0  501    0 +0.0000000000e+00 +0.0000000000e+00 +7.9578999651e+02 7.9578999651e+02 0.0000000000e+00 0.0000e+00 -1.0000e+00
       -1 -1    0    0    0  501 -0.0000000000e+00 -0.0000000000e+00 -8.3300862462e+01 8.3300862462e+01 0.0000000000e+00 0.0000e+00 1.0000e+00
     -556  1    1    2    0    0 +5.6638000181e+01 -6.3454858740e+01 +1.2058166590e+02 2.4854440310e+02 2.0000000000e+02 0.0000e+00 1.0000e+00
      556  1    1    2    0    0 -5.6638000181e+01 +6.3454858740e+01 +5.9190746814e+02 6.3054645587e+02 2.0000000000e+02 0.0000e+00 -1.0000e+00
<mgrwt>
<rscale>  0 0.51493686E+03</rscale>
<asrwt>0</asrwt>
<pdfrwt beam="1">  1        1 0.12242922E+00 0.51493686E+03</pdfrwt>
<pdfrwt beam="2">  1       -1 0.12815518E-01 0.51493686E+03</pdfrwt>
<totfact> 0.95572570E+02</totfact>
</mgrwt>
</event>
<event>
 4      1 +1.5204000e-02 4.99431200e+02 7.81860800e-03 1.01392700e-01
        2 -1    0    0  501    0 +0.0000000000e+00 +0.0000000000e+00 +2.8161214889e+03 2.8161214889e+03 0.0000000000e+00 0.0000e+00 -1.0000e+00
       -2 -1    0    0    0  501 -0.0000000000e+00 -0.0000000000e+00 -2.2143181414e+01 2.2143181414e+01 0.0000000000e+00 0.0000e+00 1.0000e+00
     -556  1    1    2    0    0 +1.5789094242e+01 -1.3531850388e+02 +1.7471969880e+03 1.7638757632e+03 2.0000000000e+02 0.0000e+00 -1.0000e+00
      556  1    1    2    0    0 -1.5789094242e+01 +1.3531850388e+02 +1.0467813195e+03 1.0743889072e+03 2.0000000000e+02 0.0000e+00 1.0000e+00
<mgrwt>
<rscale>  0 0.49943123E+03</rscale>
<asrwt>0</asrwt>
<pdfrwt beam="1">  1        2 0.43324918E+00 0.49943123E+03</pdfrwt>
<pdfrwt beam="2">  1       -2 0.34066455E-02 0.49943123E+03</pdfrwt>
<totfact> 0.90504281E+02</totfact>
</mgrwt>
</event>
<event>
 4      1 +1.5204000e-02 8.63333600e+02 7.81860800e-03 9.47261400e-02
        4 -1    0    0  501    0 +0.0000000000e+00 +0.0000000000e+00 +3.1448708701e+02 3.1448708701e+02 0.0000000000e+00 0.0000e+00 -1.0000e+00
       -4 -1    0    0    0  501 -0.0000000000e+00 -0.0000000000e+00 -5.9250835219e+02 5.9250835219e+02 0.0000000000e+00 0.0000e+00 1.0000e+00
     -556  1    1    2    0    0 +2.2384150533e+02 +3.0344682712e+02 -2.0669912204e+02 4.7424626878e+02 2.0000000000e+02 0.0000e+00 -1.0000e+00
      556  1    1    2    0    0 -2.2384150533e+02 -3.0344682712e+02 -7.1322143145e+01 4.3274917042e+02 2.0000000000e+02 0.0000e+00 1.0000e+00
<mgrwt>
<rscale>  0 0.86333360E+03</rscale>
<asrwt>0</asrwt>
<pdfrwt beam="1">  1        4 0.48382629E-01 0.86333360E+03</pdfrwt>
<pdfrwt beam="2">  1       -4 0.91155130E-01 0.86333360E+03</pdfrwt>
<totfact> 0.84435682E+00</totfact>
</mgrwt>
</event>
<event>
 4      1 +1.5204000e-02 5.66771700e+02 7.81860800e-03 9.97684800e-02
        2 -1    0    0  501    0 +0.0000000000e+00 +0.0000000000e+00 +1.2049678135e+03 1.2049678135e+03 0.0000000000e+00 0.0000e+00 -1.0000e+00
       -2 -1    0    0    0  501 -0.0000000000e+00 -0.0000000000e+00 -6.6647047434e+01 6.6647047434e+01 0.0000000000e+00 0.0000e+00 1.0000e+00
     -556  1    1    2    0    0 -8.9168079056e+01 +1.4213401163e+02 +3.2180783617e+02 4.1438304381e+02 2.0000000000e+02 0.0000e+00 1.0000e+00
      556  1    1    2    0    0 +8.9168079056e+01 -1.4213401163e+02 +8.1651292986e+02 8.5723181708e+02 2.0000000000e+02 0.0000e+00 -1.0000e+00
<mgrwt>
<rscale>  0 0.56677172E+03</rscale>
<asrwt>0</asrwt>
<pdfrwt beam="1">  1        2 0.18537965E+00 0.56677172E+03</pdfrwt>
<pdfrwt beam="2">  1       -2 0.10253393E-01 0.56677172E+03</pdfrwt>
<totfact> 0.12545814E+03</totfact>
</mgrwt>
</event>
<event>
 4      1 +1.5204000e-02 5.69305500e+02 7.81860800e-03 9.97121700e-02
        2 -1    0    0  501    0 +0.0000000000e+00 +0.0000000000e+00 +3.7035848293e+03 3.7035848293e+03 0.0000000000e+00 0.0000e+00 -1.0000e+00
       -2 -1    0    0    0  501 -0.0000000000e+00 -0.0000000000e+00 -2.1878046290e+01 2.1878046290e+01 0.0000000000e+00 0.0000e+00 1.0000e+00
     -556  1    1    2    0    0 -1.5458472323e+02 -1.2753636642e+02 +2.0333410330e+03 2.0529582845e+03 2.0000000000e+02 0.0000e+00 -1.0000e+00
      556  1    1    2    0    0 +1.5458472323e+02 +1.2753636642e+02 +1.6483657500e+03 1.6725045911e+03 2.0000000000e+02 0.0000e+00 1.0000e+00
<mgrwt>
<rscale>  0 0.56930554E+03</rscale>
<asrwt>0</asrwt>
<pdfrwt beam="1">  1        2 0.56978178E+00 0.56930554E+03</pdfrwt>
<pdfrwt beam="2">  1       -2 0.33658562E-02 0.56930554E+03</pdfrwt>
<totfact> 0.24576819E+02</totfact>
</mgrwt>
</event>
<event>
 4      1 +1.5204000e-02 7.29450900e+02 7.81860800e-03 9.66815200e-02
        2 -1    0    0  501    0 +0.0000000000e+00 +0.0000000000e+00 +2.5206103064e+03 2.5206103064e+03 0.0000000000e+00 0.0000e+00 -1.0000e+00
       -2 -1    0    0    0  501 -0.0000000000e+00 -0.0000000000e+00 -5.2774785044e+01 5.2774785044e+01 0.0000000000e+00 0.0000e+00 1.0000e+00
     -556  1    1    2    0    0 -2.8844563748e+02 -9.6637110859e+01 +1.3116143588e+03 1.3612023520e+03 2.0000000000e+02 0.0000e+00 1.0000e+00
      556  1    1    2    0    0 +2.8844563748e+02 +9.6637110859e+01 +1.1562211626e+03 1.2121827394e+03 2.0000000000e+02 0.0000e+00 -1.0000e+00
<mgrwt>
<rscale>  0 0.72945094E+03</rscale>
<asrwt>0</asrwt>
<pdfrwt beam="1">  1        2 0.38778611E+00 0.72945094E+03</pdfrwt>
<pdfrwt beam="2">  1       -2 0.81191996E-02 0.72945094E+03</pdfrwt>
<totfact> 0.33860345E+02</totfact>
</mgrwt>
</event>
<event>
 4      1 +1.5204000e-02 8.99582000e+02 7.81860800e-03 9.42610400e-02
       -2 -1    0    0    0  501 -0.0000000000e+00 +0.0000000000e+00 +7.1400679957e+01 7.1400679957e+01 0.0000000000e+00 0.0000e+00 1.0000e+00
        2 -1    0    0  501    0 +0.0000000000e+00 -0.0000000000e+00 -2.8334733430e+03 2.8334733430e+03 0.0000000000e+00 0.0000e+00 -1.0000e+00
     -556  1    1    2    0    0 +9.5804155983e-01 -1.0531178076e+02 -2.6367534313e+03 2.6464240300e+03 2.0000000000e+02 0.0000e+00 -1.0000e+00
      556  1    1    2    0    0 -9.5804155983e-01 +1.0531178076e+02 -1.2531923170e+02 2.5844999293e+02 2.0000000000e+02 0.0000e+00 1.0000e+00
<mgrwt>
<rscale>  0 0.89958195E+03</rscale>
<asrwt>0</asrwt>
<pdfrwt beam="2">  1        2 0.43591894E+00 0.89958195E+03</pdfrwt>
<pdfrwt beam="1">  1       -2 0.10984721E-01 0.89958195E+03</pdfrwt>
<totfact> 0.13410520E+02</totfact>
</mgrwt>
</event>
<event>
 4      1 +1.5204000e-02 4.71248600e+02 7.81860800e-03 1.02156800e-01
       -1 -1    0    0    0  501 -0.0000000000e+00 +0.0000000000e+00 +2.4505343386e+02 2.4505343386e+02 0.0000000000e+00 0.0000e+00 1.0000e+00
        1 -1    0    0  501    0 +0.0000000000e+00 -0.0000000000e+00 -2.2655799721e+02 2.2655799721e+02 0.0000000000e+00 0.0000e+00 -1.0000e+00
     -556  1    1    2    0    0 -5.6168978257e+01 +1.0772818317e+02 -1.8314357028e+01 2.3472479895e+02 2.0000000000e+02 0.0000e+00 1.0000e+00
      556  1    1    2    0    0 +5.6168978257e+01 -1.0772818317e+02 +3.6809793678e+01 2.3688663212e+02 2.0000000000e+02 0.0000e+00 -1.0000e+00
<mgrwt>
<rscale>  0 0.47124862E+03</rscale>
<asrwt>0</asrwt>
<pdfrwt beam="2">  1        1 0.34855076E-01 0.47124862E+03</pdfrwt>
<pdfrwt beam="1">  1       -1 0.37700528E-01 0.47124862E+03</pdfrwt>
<totfact> 0.86136485E+02</totfact>
</mgrwt>
</event>
<event>
 4      1 +1.5204000e-02 5.06205000e+02 7.81860800e-03 1.01217200e-01
       -2 -1    0    0    0  501 -0.0000000000e+00 +0.0000000000e+00 +4.0395240326e+01 4.0395240326e+01 0.0000000000e+00 0.0000e+00 1.0000e+00
        2 -1    0    0  501    0 +0.0000000000e+00 -0.0000000000e+00 -1.5858522254e+03 1.5858522254e+03 0.0000000000e+00 0.0000e+00 -1.0000e+00
     -556  1    1    2    0    0 -9.4451031311e+01 -3.6125191315e+01 -1.1506029068e+03 1.1722256932e+03 2.0000000000e+02 0.0000e+00 -1.0000e+00
      556  1    1    2    0    0 +9.4451031311e+01 +3.6125191315e+01 -3.9485407831e+02 4.5402177252e+02 2.0000000000e+02 0.0000e+00 1.0000e+00
<mgrwt>
<rscale>  0 0.50620502E+03</rscale>
<asrwt>0</asrwt>
<pdfrwt beam="2">  1        2 0.24397733E+00 0.50620502E+03</pdfrwt>
<pdfrwt beam="1">  1       -2 0.62146507E-02 0.50620502E+03</pdfrwt>
<totfact> 0.17055307E+03</totfact>
</mgrwt>
</event>
<event>
 4      1 +1.5204000e-02 5.61939500e+02 7.81860800e-03 9.98767600e-02
       -2 -1    0    0    0  501 -0.0000000000e+00 +0.0000000000e+00 +1.7374065940e+02 1.7374065940e+02 0.0000000000e+00 0.0000e+00 1.0000e+00
        2 -1    0    0  501    0 +0.0000000000e+00 -0.0000000000e+00 -4.5437839090e+02 4.5437839090e+02 0.0000000000e+00 0.0000e+00 -1.0000e+00
     -556  1    1    2    0    0 +6.4137641469e+01 -1.1888552658e+02 +2.0486990562e+01 2.4221296882e+02 2.0000000000e+02 0.0000e+00 1.0000e+00
      556  1    1    2    0    0 -6.4137641469e+01 +1.1888552658e+02 -3.0112472207e+02 3.8590608148e+02 2.0000000000e+02 0.0000e+00 -1.0000e+00
<mgrwt>
<rscale>  0 0.56193950E+03</rscale>
<asrwt>0</asrwt>
<pdfrwt beam="2">  1        2 0.69904367E-01 0.56193950E+03</pdfrwt>
<pdfrwt beam="1">  1       -2 0.26729333E-01 0.56193950E+03</pdfrwt>
<totfact> 0.87613349E+02</totfact>
</mgrwt>
</event>
<event>
 4      1 +1.5204000e-02 4.69773600e+02 7.81860800e-03 1.02198400e-01
        3 -1    0    0  501    0 +0.0000000000e+00 +0.0000000000e+00 +4.5749336960e+02 4.5749336960e+02 0.0000000000e+00 0.0000e+00 -1.0000e+00
       -3 -1    0    0    0  501 -0.0000000000e+00 -0.0000000000e+00 -1.2059586182e+02 1.2059586182e+02 0.0000000000e+00 0.0000e+00 1.0000e+00
     -556  1    1    2    0    0 +8.8607349713e+01 +1.1225885602e+01 +6.4071150829e+01 2.2821567715e+02 2.0000000000e+02 0.0000e+00 1.0000e+00
      556  1    1    2    0    0 -8.8607349713e+01 -1.1225885602e+01 +2.7282635695e+02 3.4987355427e+02 2.0000000000e+02 0.0000e+00 -1.0000e+00
<mgrwt>
<rscale>  0 0.46977359E+03</rscale>
<asrwt>0</asrwt>
<pdfrwt beam="1">  1        3 0.70383594E-01 0.46977359E+03</pdfrwt>
<pdfrwt beam="2">  1       -3 0.18553210E-01 0.46977359E+03</pdfrwt>
<totfact> 0.13166235E+02</totfact>
</mgrwt>
</event>
<event>
 4      1 +1.5204000e-02 6.87517100e+02 7.81860800e-03 9.73882100e-02
       -2 -1    0    0    0  501 -0.0000000000e+00 +0.0000000000e+00 +5.1270477385e+01 5.1270477385e+01 0.0000000000e+00 0.0000e+00 -1.0000e+00
        2 -1    0    0  501    0 +0.0000000000e+00 -0.0000000000e+00 -2.3048339954e+03 2.3048339954e+03 0.0000000000e+00 0.0000e+00 1.0000e+00
     -556  1    1    2    0    0 -2.4768309655e+02 -1.2056391914e+02 -9.6288184953e+02 1.0212854797e+03 2.0000000000e+02 0.0000e+00 1.0000e+00
      556  1    1    2    0    0 +2.4768309655e+02 +1.2056391914e+02 -1.2906816685e+03 1.3348189931e+03 2.0000000000e+02 0.0000e+00 -1.0000e+00
<mgrwt>
<rscale>  0 0.68751710E+03</rscale>
<asrwt>0</asrwt>
<pdfrwt beam="2">  1        2 0.35458982E+00 0.68751710E+03</pdfrwt>
<pdfrwt beam="1">  1       -2 0.78877663E-02 0.68751710E+03</pdfrwt>
<totfact> 0.47029062E+02</totfact>
</mgrwt>
</event>
<event>
 4      1 +1.5204000e-02 4.79374300e+02 7.81860800e-03 1.01930700e-01
        2 -1    0    0  501    0 +0.0000000000e+00 +0.0000000000e+00 +5.3212113181e+02 5.3212113181e+02 0.0000000000e+00 0.0000e+00 -1.0000e+00
       -2 -1    0    0    0  501 -0.0000000000e+00 -0.0000000000e+00 -1.0796401070e+02 1.0796401070e+02 0.0000000000e+00 0.0000e+00 1.0000e+00
     -556  1    1    2    0    0 -4.3827038061e+01 -1.2448296577e+02 +2.0439494200e+02 3.1495096499e+02 2.0000000000e+02 0.0000e+00 1.0000e+00
      556  1    1    2    0    0 +4.3827038061e+01 +1.2448296577e+02 +2.1976217910e+02 3.2513417753e+02 2.0000000000e+02 0.0000e+00 -1.0000e+00
<mgrwt>
<rscale>  0 0.47937431E+03</rscale>
<asrwt>0</asrwt>
<pdfrwt beam="1">  1        2 0.81864788E-01 0.47937431E+03</pdfrwt>
<pdfrwt beam="2">  1       -2 0.16609848E-01 0.47937431E+03</pdfrwt>
<totfact> 0.16821437E+03</totfact>
</mgrwt>
</event>
<event>
 4      1 +1.5204000e-02 5.93814800e+02 7.81860800e-03 9.91832200e-02
        2 -1    0    0  501    0 +0.0000000000e+00 +0.0000000000e+00 +7.8387949872e+02 7.8387949872e+02 0.0000000000e+00 0.0000e+00 1.0000e+00
       -2 -1    0    0    0  501 -0.0000000000e+00 -0.0000000000e+00 -1.1245863103e+02 1.1245863103e+02 0.0000000000e+00 0.0000e+00 -1.0000e+00
     -556  1    1    2    0    0 +9.0572465198e+01 +1.5889788132e+02 +1.5268534825e+02 3.1107028741e+02 2.0000000000e+02 0.0000e+00 -1.0000e+00
      556  1    1    2    0    0 -9.0572465198e+01 -1.5889788132e+02 +5.1873551945e+02 5.8526784234e+02 2.0000000000e+02 0.0000e+00 1.0000e+00
<mgrwt>
<rscale>  0 0.59381484E+03</rscale>
<asrwt>0</asrwt>
<pdfrwt beam="1">  1        2 0.12059684E+00 0.59381484E+03</pdfrwt>
<pdfrwt beam="2">  1       -2 0.17301328E-01 0.59381484E+03</pdfrwt>
<totfact> 0.97673951E+02</totfact>
</mgrwt>
</event>
<event>
 4      1 +1.5204000e-02 5.13993200e+02 7.81860800e-03 1.01019000e-01
        1 -1    0    0  501    0 +0.0000000000e+00 +0.0000000000e+00 +4.2848206458e+02 4.2848206458e+02 0.0000000000e+00 0.0000e+00 -1.0000e+00
       -1 -1    0    0    0  501 -0.0000000000e+00 -0.0000000000e+00 -1.5414241705e+02 1.5414241705e+02 0.0000000000e+00 0.0000e+00 1.0000e+00
     -556  1    1    2    0    0 -4.8032421290e+01 -2.7752204818e+01 -3.4625553231e+01 2.1041917048e+02 2.0000000000e+02 0.0000e+00 1.0000e+00
      556  1    1    2    0    0 +4.8032421290e+01 +2.7752204818e+01 +3.0896520077e+02 3.7220531115e+02 2.0000000000e+02 0.0000e+00 -1.0000e+00
<mgrwt>
<rscale>  0 0.51399323E+03</rscale>
<asrwt>0</asrwt>
<pdfrwt beam="1">  1        1 0.65920317E-01 0.51399323E+03</pdfrwt>
<pdfrwt beam="2">  1       -1 0.23714218E-01 0.51399323E+03</pdfrwt>
<totfact> 0.84323926E+02</totfact>
</mgrwt>
</event>
<event>
 4      1 +1.5204000e-02 5.34306900e+02 7.81860800e-03 1.00519300e-01
        1 -1    0    0  501    0 +0.0000000000e+00 +0.0000000000e+00 +1.4070787010e+03 1.4070787010e+03 0.0000000000e+00 0.0000e+00 -1.0000e+00
       -1 -1    0    0    0  501 -0.0000000000e+00 -0.0000000000e+00 -5.0722793174e+01 5.0722793174e+01 0.0000000000e+00 0.0000e+00 1.0000e+00
     -556  1    1    2    0    0 -6.3781095285e+01 +6.7116843208e+01 +2.6621467931e+02 3.4560519996e+02 2.0000000000e+02 0.0000e+00 1.0000e+00
      556  1    1    2    0    0 +6.3781095285e+01 -6.7116843208e+01 +1.0901412285e+03 1.1121962942e+03 2.0000000000e+02 0.0000e+00 -1.0000e+00
<mgrwt>
<rscale>  0 0.53430689E+03</rscale>
<asrwt>0</asrwt>
<pdfrwt beam="1">  1        1 0.21647362E+00 0.53430689E+03</pdfrwt>
<pdfrwt beam="2">  1       -1 0.78035077E-02 0.53430689E+03</pdfrwt>
<totfact> 0.72648826E+02</totfact>
</mgrwt>
</event>
<event>
 4      1 +1.5204000e-02 7.43150800e+02 7.81860800e-03 9.64615700e-02
       -2 -1    0    0    0  501 -0.0000000000e+00 +0.0000000000e+00 +1.3655742752e+02 1.3655742752e+02 0.0000000000e+00 0.0000e+00 1.0000e+00
        2 -1    0    0  501    0 +0.0000000000e+00 -0.0000000000e+00 -1.0110639385e+03 1.0110639385e+03 0.0000000000e+00 0.0000e+00 -1.0000e+00
     -556  1    1    2    0    0 +4.1011575792e+01 +2.9121140335e+02 -2.7105812102e+02 4.4716723467e+02 2.0000000000e+02 0.0000e+00 1.0000e+00
      556  1    1    2    0    0 -4.1011575792e+01 -2.9121140335e+02 -6.0344838996e+02 7.0045413135e+02 2.0000000000e+02 0.0000e+00 -1.0000e+00
<mgrwt>
<rscale>  0 0.74315083E+03</rscale>
<asrwt>0</asrwt>
<pdfrwt beam="2">  1        2 0.15554830E+00 0.74315083E+03</pdfrwt>
<pdfrwt beam="1">  1       -2 0.21008835E-01 0.74315083E+03</pdfrwt>
<totfact> 0.48789903E+02</totfact>
</mgrwt>
</event>
<event>
 4      1 +1.5204000e-02 9.74330300e+02 7.81860800e-03 9.33715600e-02
       -2 -1    0    0    0  501 -0.0000000000e+00 +0.0000000000e+00 +3.0464604221e+02 3.0464604221e+02 0.0000000000e+00 0.0000e+00 1.0000e+00
        2 -1    0    0  501    0 +0.0000000000e+00 -0.0000000000e+00 -7.7903488531e+02 7.7903488531e+02 0.0000000000e+00 0.0000e+00 -1.0000e+00
     -556  1    1    2    0    0 -6.6006458572e+01 +1.7456349957e+02 -6.8555015848e+02 7.3811129767e+02 2.0000000000e+02 0.0000e+00 -1.0000e+00
      556  1    1    2    0    0 +6.6006458572e+01 -1.7456349957e+02 +2.1116131538e+02 3.4556962984e+02 2.0000000000e+02 0.0000e+00 1.0000e+00
<mgrwt>
<rscale>  0 0.97433032E+03</rscale>
<asrwt>0</asrwt>
<pdfrwt beam="2">  1        2 0.11985152E+00 0.97433032E+03</pdfrwt>
<pdfrwt beam="1">  1       -2 0.46868622E-01 0.97433032E+03</pdfrwt>
<totfact> 0.15389782E+02</totfact>
</mgrwt>
</event>
<event>
 4      1 +1.5204000e-02 6.52417900e+02 7.81860800e-03 9.80225300e-02
        2 -1    0    0  501    0 +0.0000000000e+00 +0.0000000000e+00 +1.0245503069e+03 1.0245503069e+03 0.0000000000e+00 0.0000e+00 -1.0000e+00
       -2 -1    0    0    0  501 -0.0000000000e+00 -0.0000000000e+00 -1.0386242513e+02 1.0386242513e+02 0.0000000000e+00 0.0000e+00 1.0000e+00
     -556  1    1    2    0    0 +2.1542680190e+02 -1.1600751684e+02 +3.2040956236e+02 4.5003193063e+02 2.0000000000e+02 0.0000e+00 1.0000e+00
      556  1    1    2    0    0 -2.1542680190e+02 +1.1600751684e+02 +6.0027831944e+02 6.7838080142e+02 2.0000000000e+02 0.0000e+00 -1.0000e+00
<mgrwt>
<rscale>  0 0.65241790E+03</rscale>
<asrwt>0</asrwt>
<pdfrwt beam="1">  1        2 0.15762312E+00 0.65241790E+03</pdfrwt>
<pdfrwt beam="2">  1       -2 0.15978835E-01 0.65241790E+03</pdfrwt>
<totfact> 0.77052830E+02</totfact>
</mgrwt>
</event>
<event>
 4      1 +1.5204000e-02 9.61657300e+02 7.81860800e-03 9.35162800e-02
       -2 -1    0    0    0  501 -0.0000000000e+00 +0.0000000000e+00 +7.3267566274e+01 7.3267566274e+01 0.0000000000e+00 0.0000e+00 1.0000e+00
        2 -1    0    0  501    0 +0.0000000000e+00 -0.0000000000e+00 -3.1555053860e+03 3.1555053860e+03 0.0000000000e+00 0.0000e+00 -1.0000e+00
     -556  1    1    2    0    0 -4.0275290673e+02 +1.4854033611e+02 -1.8204601076e+03 1.8810500097e+03 2.0000000000e+02 0.0000e+00 -1.0000e+00
      556  1    1    2    0    0 +4.0275290673e+02 -1.4854033611e+02 -1.2617777121e+03 1.3477229426e+03 2.0000000000e+02 0.0000e+00 1.0000e+00
<mgrwt>
<rscale>  0 0.96165732E+03</rscale>
<asrwt>0</asrwt>
<pdfrwt beam="2">  1        2 0.48546236E+00 0.96165732E+03</pdfrwt>
<pdfrwt beam="1">  1       -2 0.11271933E-01 0.96165732E+03</pdfrwt>
<totfact> 0.80922847E+01</totfact>
</mgrwt>
</event>
<event>
 4      1 +1.5204000e-02 7.53884200e+02 7.81860800e-03 9.62927600e-02
        2 -1    0    0  501    0 +0.0000000000e+00 +0.0000000000e+00 +2.0747569947e+03 2.0747569947e+03 0.0000000000e+00 0.0000e+00 -1.0000e+00
       -2 -1    0    0    0  501 -0.0000000000e+00 -0.0000000000e+00 -6.8482882767e+01 6.8482882767e+01 0.0000000000e+00 0.0000e+00 1.0000e+00
     -556  1    1    2    0    0 +1.5234913945e+02 -2.4849722139e+02 +1.3751614617e+03 1.4198697740e+03 2.0000000000e+02 0.0000e+00 -1.0000e+00
      556  1    1    2    0    0 -1.5234913945e+02 +2.4849722139e+02 +6.3111265024e+02 7.2337010349e+02 2.0000000000e+02 0.0000e+00 1.0000e+00
<mgrwt>
<rscale>  0 0.75388418E+03</rscale>
<asrwt>0</asrwt>
<pdfrwt beam="1">  1        2 0.31919334E+00 0.75388418E+03</pdfrwt>
<pdfrwt beam="2">  1       -2 0.10535830E-01 0.75388418E+03</pdfrwt>
<totfact> 0.39227265E+02</totfact>
</mgrwt>
</event>
<event>
 4      1 +1.5204000e-02 6.75537700e+02 7.81860800e-03 9.76000500e-02
       -2 -1    0    0    0  501 -0.0000000000e+00 +0.0000000000e+00 +1.8985004237e+02 1.8985004237e+02 0.0000000000e+00 0.0000e+00 1.0000e+00
        2 -1    0    0  501    0 +0.0000000000e+00 -0.0000000000e+00 -6.0093638525e+02 6.0093638525e+02 0.0000000000e+00 0.0000e+00 -1.0000e+00
     -556  1    1    2    0    0 -5.3380893950e+01 -1.3759960397e+02 -4.7326246353e+02 5.3456573986e+02 2.0000000000e+02 0.0000e+00 -1.0000e+00
      556  1    1    2    0    0 +5.3380893950e+01 +1.3759960397e+02 +6.2176120649e+01 2.5622068775e+02 2.0000000000e+02 0.0000e+00 1.0000e+00
<mgrwt>
<rscale>  0 0.67553771E+03</rscale>
<asrwt>0</asrwt>
<pdfrwt beam="2">  1        2 0.92451753E-01 0.67553771E+03</pdfrwt>
<pdfrwt beam="1">  1       -2 0.29207698E-01 0.67553771E+03</pdfrwt>
<totfact> 0.53673540E+02</totfact>
</mgrwt>
</event>
<event>
 4      1 +1.5204000e-02 5.14566800e+02 7.81860800e-03 1.01004500e-01
        2 -1    0    0  501    0 +0.0000000000e+00 +0.0000000000e+00 +1.4185523091e+03 1.4185523091e+03 0.0000000000e+00 0.0000e+00 -1.0000e+00
       -2 -1    0    0    0  501 -0.0000000000e+00 -0.0000000000e+00 -4.6663596659e+01 4.6663596659e+01 0.0000000000e+00 0.0000e+00 1.0000e+00
     -556  1    1    2    0    0 +1.3740681606e+01 -1.3759052416e+02 +9.2545055032e+02 9.5685875643e+02 2.0000000000e+02 0.0000e+00 -1.0000e+00
      556  1    1    2    0    0 -1.3740681606e+01 +1.3759052416e+02 +4.4643816209e+02 5.0835714929e+02 2.0000000000e+02 0.0000e+00 1.0000e+00
<mgrwt>
<rscale>  0 0.51456682E+03</rscale>
<asrwt>0</asrwt>
<pdfrwt beam="1">  1        2 0.21823878E+00 0.51456682E+03</pdfrwt>
<pdfrwt beam="2">  1       -2 0.71790159E-02 0.51456682E+03</pdfrwt>
<totfact> 0.16797575E+03</totfact>
</mgrwt>
</event>
<event>
 4      1 +1.5204000e-02 5.18406200e+02 7.81860800e-03 1.00908300e-01
       -1 -1    0    0    0  501 -0.0000000000e+00 +0.0000000000e+00 +3.1627644737e+01 3.1627644737e+01 0.0000000000e+00 0.0000e+00 1.0000e+00
        1 -1    0    0  501    0 +0.0000000000e+00 -0.0000000000e+00 -2.1242886450e+03 2.1242886450e+03 0.0000000000e+00 0.0000e+00 -1.0000e+00
     -556  1    1    2    0    0 +6.7657273086e+01 -1.5028698902e+02 -1.0660838170e+03 1.0971318930e+03 2.0000000000e+02 0.0000e+00 -1.0000e+00
      556  1    1    2    0    0 -6.7657273086e+01 +1.5028698902e+02 -1.0265771832e+03 1.0587843968e+03 2.0000000000e+02 0.0000e+00 1.0000e+00
<mgrwt>
<rscale>  0 0.51840620E+03</rscale>
<asrwt>0</asrwt>
<pdfrwt beam="2">  1        1 0.32681368E+00 0.51840620E+03</pdfrwt>
<pdfrwt beam="1">  1       -1 0.48657909E-02 0.51840620E+03</pdfrwt>
<totfact> 0.49912005E+02</totfact>
</mgrwt>
</event>
<event>
 4      1 +1.5204000e-02 7.77064800e+02 7.81860800e-03 9.59382100e-02
        2 -1    0    0  501    0 +0.0000000000e+00 +0.0000000000e+00 +8.0417578916e+02 8.0417578916e+02 0.0000000000e+00 0.0000e+00 -1.0000e+00
       -2 -1    0    0    0  501 -0.0000000000e+00 -0.0000000000e+00 -1.8771693089e+02 1.8771693089e+02 0.0000000000e+00 0.0000e+00 1.0000e+00
     -556  1    1    2    0    0 +1.2021244943e+02 -2.5769022628e+02 +8.6763936197e+01 3.5830610704e+02 2.0000000000e+02 0.0000e+00 1.0000e+00
      556  1    1    2    0    0 -1.2021244943e+02 +2.5769022628e+02 +5.2969492207e+02 6.3358661301e+02 2.0000000000e+02 0.0000e+00 -1.0000e+00
<mgrwt>
<rscale>  0 0.77706476E+03</rscale>
<asrwt>0</asrwt>
<pdfrwt beam="1">  1        2 0.12371935E+00 0.77706476E+03</pdfrwt>
<pdfrwt beam="2">  1       -2 0.28879528E-01 0.77706476E+03</pdfrwt>
<totfact> 0.37830584E+02</totfact>
</mgrwt>
</event>
<event>
 4      1 +1.5204000e-02 4.75058400e+02 7.81860800e-03 1.02050200e-01
        1 -1    0    0  501    0 +0.0000000000e+00 +0.0000000000e+00 +1.0186708110e+02 1.0186708110e+02 0.0000000000e+00 0.0000e+00 1.0000e+00
       -1 -1    0    0    0  501 -0.0000000000e+00 -0.0000000000e+00 -5.5386024308e+02 5.5386024308e+02 0.0000000000e+00 0.0000e+00 -1.0000e+00
     -556  1    1    2    0    0 -6.2894800505e+01 -3.4716875783e+01 -7.9533465370e+01 2.2690656559e+02 2.0000000000e+02 0.0000e+00 1.0000e+00
      556  1    1    2    0    0 +6.2894800505e+01 +3.4716875783e+01 -3.7245969661e+02 4.2882075859e+02 2.0000000000e+02 0.0000e+00 -1.0000e+00
<mgrwt>
<rscale>  0 0.47505842E+03</rscale>
<asrwt>0</asrwt>
<pdfrwt beam="1">  1        1 0.15671859E-01 0.47505842E+03</pdfrwt>
<pdfrwt beam="2">  1       -1 0.85209267E-01 0.47505842E+03</pdfrwt>
<totfact> 0.50181067E+02</totfact>
</mgrwt>
</event>
<event>
 4      1 +1.5204000e-02 7.28926700e+02 7.81860800e-03 9.66900400e-02
       -1 -1    0    0    0  501 -0.0000000000e+00 +0.0000000000e+00 +1.3157470954e+02 1.3157470954e+02 0.0000000000e+00 0.0000e+00 1.0000e+00
        1 -1    0    0  501    0 +0.0000000000e+00 -0.0000000000e+00 -1.0095673792e+03 1.0095673792e+03 0.0000000000e+00 0.0000e+00 -1.0000e+00
     -556  1    1    2    0    0 +1.9395400322e+02 -2.0340467786e+02 -2.5481145575e+02 4.2885952983e+02 2.0000000000e+02 0.0000e+00 1.0000e+00
      556  1    1    2    0    0 -1.9395400322e+02 +2.0340467786e+02 -6.2318121388e+02 7.1228255887e+02 2.0000000000e+02 0.0000e+00 -1.0000e+00
<mgrwt>
<rscale>  0 0.72892670E+03</rscale>
<asrwt>0</asrwt>
<pdfrwt beam="2">  1        1 0.15531806E+00 0.72892670E+03</pdfrwt>
<pdfrwt beam="1">  1       -1 0.20242263E-01 0.72892670E+03</pdfrwt>
<totfact> 0.30165769E+02</totfact>
</mgrwt>
</event>
<event>
 4      1 +1.5204000e-02 1.02794800e+03 7.81860800e-03 9.27841200e-02
        1 -1    0    0  501    0 +0.0000000000e+00 +0.0000000000e+00 +3.4496768673e+02 3.4496768673e+02 0.0000000000e+00 0.0000e+00 -1.0000e+00
       -1 -1    0    0    0  501 -0.0000000000e+00 -0.0000000000e+00 -7.6578028881e+02 7.6578028881e+02 0.0000000000e+00 0.0000e+00 1.0000e+00
     -556  1    1    2    0    0 -2.6127788028e+02 +8.9945410654e+01 +2.0502648361e+02 3.9798513364e+02 2.0000000000e+02 0.0000e+00 -1.0000e+00
      556  1    1    2    0    0 +2.6127788028e+02 -8.9945410654e+01 -6.2583908569e+02 7.1276284190e+02 2.0000000000e+02 0.0000e+00 1.0000e+00
<mgrwt>
<rscale>  0 0.10279484E+04</rscale>
<asrwt>0</asrwt>
<pdfrwt beam="1">  1        1 0.53071953E-01 0.10279484E+04</pdfrwt>
<pdfrwt beam="2">  1       -1 0.11781235E+00 0.10279484E+04</pdfrwt>
<totfact> 0.47334507E+01</totfact>
</mgrwt>
</event>
<event>
 4      1 +1.5204000e-02 1.23550600e+03 7.81860800e-03 9.08233400e-02
        1 -1    0    0  501    0 +0.0000000000e+00 +0.0000000000e+00 +1.2621632440e+03 1.2621632440e+03 0.0000000000e+00 0.0000e+00 -1.0000e+00
       -1 -1    0    0    0  501 -0.0000000000e+00 -0.0000000000e+00 -3.0235289077e+02 3.0235289077e+02 0.0000000000e+00 0.0000e+00 1.0000e+00
     -556  1    1    2    0    0 -2.2529331997e+02 -5.2574263013e+02 +3.2765283368e+02 6.8885323007e+02 2.0000000000e+02 0.0000e+00 1.0000e+00
      556  1    1    2    0    0 +2.2529331997e+02 +5.2574263013e+02 +6.3215751958e+02 8.7566290473e+02 2.0000000000e+02 0.0000e+00 -1.0000e+00
<mgrwt>
<rscale>  0 0.12355059E+04</rscale>
<asrwt>0</asrwt>
<pdfrwt beam="1">  1        1 0.19417896E+00 0.12355059E+04</pdfrwt>
<pdfrwt beam="2">  1       -1 0.46515830E-01 0.12355059E+04</pdfrwt>
<totfact> 0.43738905E+01</totfact>
</mgrwt>
</event>
<event>
 4      1 +1.5204000e-02 7.36112200e+02 7.81860800e-03 9.65739400e-02
        2 -1    0    0  501    0 +0.0000000000e+00 +0.0000000000e+00 +1.7854169626e+03 1.7854169626e+03 0.0000000000e+00 0.0000e+00 -1.0000e+00
       -2 -1    0    0    0  501 -0.0000000000e+00 -0.0000000000e+00 -7.5873190970e+01 7.5873190970e+01 0.0000000000e+00 0.0000e+00 1.0000e+00
     -556  1    1    2    0    0 -9.2905136315e+01 +6.2997074801e+01 +1.2689756303e+02 2.6211254699e+02 2.0000000000e+02 0.0000e+00 1.0000e+00
      556  1    1    2    0    0 +9.2905136315e+01 -6.2997074801e+01 +1.5826462086e+03 1.5991776066e+03 2.0000000000e+02 0.0000e+00 -1.0000e+00
<mgrwt>
<rscale>  0 0.73611217E+03</rscale>
<asrwt>0</asrwt>
<pdfrwt beam="1">  1        2 0.27467950E+00 0.73611217E+03</pdfrwt>
<pdfrwt beam="2">  1       -2 0.11672800E-01 0.73611217E+03</pdfrwt>
<totfact> 0.47733972E+02</totfact>
</mgrwt>
</event>
<event>
 4      1 +1.5204000e-02 4.40229600e+02 7.81860800e-03 1.03067600e-01
       -2 -1    0    0    0  501 -0.0000000000e+00 +0.0000000000e+00 +1.4722242401e+02 1.4722242401e+02 0.0000000000e+00 0.0000e+00 1.0000e+00
        2 -1    0    0  501    0 +0.0000000000e+00 -0.0000000000e+00 -3.2909752494e+02 3.2909752494e+02 0.0000000000e+00 0.0000e+00 -1.0000e+00
     -556  1    1    2    0    0 -2.9692188918e+01 +8.6251617414e+01 -1.0325350214e+02 2.4286262227e+02 2.0000000000e+02 0.0000e+00 -1.0000e+00
      556  1    1    2    0    0 +2.9692188918e+01 -8.6251617414e+01 -7.8621598784e+01 2.3345732669e+02 2.0000000000e+02 0.0000e+00 1.0000e+00
<mgrwt>
<rscale>  0 0.44022965E+03</rscale>
<asrwt>0</asrwt>
<pdfrwt beam="2">  1        2 0.50630388E-01 0.44022965E+03</pdfrwt>
<pdfrwt beam="1">  1       -2 0.22649604E-01 0.44022965E+03</pdfrwt>
<totfact> 0.16846785E+03</totfact>
</mgrwt>
</event>
<event>
 4      1 +1.5204000e-02 7.01747800e+02 7.81860800e-03 9.71424800e-02
        2 -1    0    0  501    0 +0.0000000000e+00 +0.0000000000e+00 +2.2598852644e+03 2.2598852644e+03 0.0000000000e+00 0.0000e+00 -1.0000e+00
       -2 -1    0    0    0  501 -0.0000000000e+00 -0.0000000000e+00 -5.4477324594e+01 5.4477324594e+01 0.0000000000e+00 0.0000e+00 1.0000e+00
     -556  1    1    2    0    0 -5.5323051584e+01 +1.4504286782e+02 +3.0152520322e+02 3.9372010581e+02 2.0000000000e+02 0.0000e+00 1.0000e+00
      556  1    1    2    0    0 +5.5323051584e+01 -1.4504286782e+02 +1.9038827366e+03 1.9206424832e+03 2.0000000000e+02 0.0000e+00 -1.0000e+00
<mgrwt>
<rscale>  0 0.70174783E+03</rscale>
<asrwt>0</asrwt>
<pdfrwt beam="1">  1        2 0.34767458E+00 0.70174783E+03</pdfrwt>
<pdfrwt beam="2">  1       -2 0.83811286E-02 0.70174783E+03</pdfrwt>
<totfact> 0.45138583E+02</totfact>
</mgrwt>
</event>
<event>
 4      1 +1.5204000e-02 7.13962400e+02 7.81860800e-03 9.69364800e-02
        2 -1    0    0  501    0 +0.0000000000e+00 +0.0000000000e+00 +1.9538977487e+02 1.9538977487e+02 0.0000000000e+00 0.0000e+00 -1.0000e+00
       -2 -1    0    0    0  501 -0.0000000000e+00 -0.0000000000e+00 -6.5221210139e+02 6.5221210139e+02 0.0000000000e+00 0.0000e+00 1.0000e+00
     -556  1    1    2    0    0 -1.2753369009e+02 +1.4536620846e+02 -4.9397724971e+02 5.6693006615e+02 2.0000000000e+02 0.0000e+00 1.0000e+00
      556  1    1    2    0    0 +1.2753369009e+02 -1.4536620846e+02 +3.7154923193e+01 2.8067181011e+02 2.0000000000e+02 0.0000e+00 -1.0000e+00
<mgrwt>
<rscale>  0 0.71396240E+03</rscale>
<asrwt>0</asrwt>
<pdfrwt beam="1">  1        2 0.30059966E-01 0.71396240E+03</pdfrwt>
<pdfrwt beam="2">  1       -2 0.10034032E+00 0.71396240E+03</pdfrwt>
<totfact> 0.14694488E+02</totfact>
</mgrwt>
</event>
<event>
 4      1 +1.5204000e-02 4.90749700e+02 7.81860800e-03 1.01622200e-01
        4 -1    0    0  501    0 +0.0000000000e+00 +0.0000000000e+00 +4.8591099765e+01 4.8591099765e+01 0.0000000000e+00 0.0000e+00 -1.0000e+00
       -4 -1    0    0    0  501 -0.0000000000e+00 -0.0000000000e+00 -1.2390916948e+03 1.2390916948e+03 0.0000000000e+00 0.0000e+00 1.0000e+00
     -556  1    1    2    0    0 -2.6851922729e+01 -2.3474459118e+01 -2.3417185733e+02 3.1001376542e+02 2.0000000000e+02 0.0000e+00 -1.0000e+00
      556  1    1    2    0    0 +2.6851922729e+01 +2.3474459118e+01 -9.5632873771e+02 9.7766902915e+02 2.0000000000e+02 0.0000e+00 1.0000e+00
<mgrwt>
<rscale>  0 0.49074975E+03</rscale>
<asrwt>0</asrwt>
<pdfrwt beam="1">  1        4 0.74755526E-02 0.49074975E+03</pdfrwt>
<pdfrwt beam="2">  1       -4 0.19062952E+00 0.49074975E+03</pdfrwt>
<totfact> 0.39254834E+01</totfact>
</mgrwt>
</event>
<event>
 4      1 +1.5204000e-02 6.07552600e+02 7.81860800e-03 9.88986000e-02
        1 -1    0    0  501    0 +0.0000000000e+00 +0.0000000000e+00 +9.5772209907e+02 9.5772209907e+02 0.0000000000e+00 0.0000e+00 -1.0000e+00
       -1 -1    0    0    0  501 -0.0000000000e+00 -0.0000000000e+00 -9.6353667112e+01 9.6353667112e+01 0.0000000000e+00 0.0000e+00 1.0000e+00
     -556  1    1    2    0    0 +2.2540818708e+02 +3.0993452294e+01 +3.9148072737e+02 4.9500162100e+02 2.0000000000e+02 0.0000e+00 1.0000e+00
      556  1    1    2    0    0 -2.2540818708e+02 -3.0993452294e+01 +4.6988770458e+02 5.5907414518e+02 2.0000000000e+02 0.0000e+00 -1.0000e+00
<mgrwt>
<rscale>  0 0.60755259E+03</rscale>
<asrwt>0</asrwt>
<pdfrwt beam="1">  1        1 0.14734185E+00 0.60755259E+03</pdfrwt>
<pdfrwt beam="2">  1       -1 0.14823642E-01 0.60755259E+03</pdfrwt>
<totfact> 0.55549750E+02</totfact>
</mgrwt>
</event>
<event>
 4      1 +1.5204000e-02 5.37013100e+02 7.81860800e-03 1.00454500e-01
       -1 -1    0    0    0  501 -0.0000000000e+00 +0.0000000000e+00 +1.9800781466e+02 1.9800781466e+02 0.0000000000e+00 0.0000e+00 1.0000e+00
        1 -1    0    0  501    0 +0.0000000000e+00 -0.0000000000e+00 -3.6410567251e+02 3.6410567251e+02 0.0000000000e+00 0.0000e+00 -1.0000e+00
     -556  1    1    2    0    0 -1.1601070699e+02 -1.2884194462e+02 -1.3029205798e+02 2.9501652700e+02 2.0000000000e+02 0.0000e+00 -1.0000e+00
      556  1    1    2    0    0 +1.1601070699e+02 +1.2884194462e+02 -3.5805799877e+01 2.6709696017e+02 2.0000000000e+02 0.0000e+00 1.0000e+00
<mgrwt>
<rscale>  0 0.53701310E+03</rscale>
<asrwt>0</asrwt>
<pdfrwt beam="2">  1        1 0.56016257E-01 0.53701310E+03</pdfrwt>
<pdfrwt beam="1">  1       -1 0.30462741E-01 0.53701310E+03</pdfrwt>
<totfact> 0.68044644E+02</totfact>
</mgrwt>
</event>
<event>
 4      1 +1.5204000e-02 5.66263900e+02 7.81860800e-03 9.97798000e-02
        2 -1    0    0  501    0 +0.0000000000e+00 +0.0000000000e+00 +2.9810765558e+03 2.9810765558e+03 0.0000000000e+00 0.0000e+00 -1.0000e+00
       -2 -1    0    0    0  501 -0.0000000000e+00 -0.0000000000e+00 -2.6890859129e+01 2.6890859129e+01 0.0000000000e+00 0.0000e+00 1.0000e+00
     -556  1    1    2    0    0 +7.8962636083e+01 -1.7456485227e+02 +1.1648275218e+03 1.1973016082e+03 2.0000000000e+02 0.0000e+00 1.0000e+00
      556  1    1    2    0    0 -7.8962636083e+01 +1.7456485227e+02 +1.7893581749e+03 1.8106658068e+03 2.0000000000e+02 0.0000e+00 -1.0000e+00
<mgrwt>
<rscale>  0 0.56626393E+03</rscale>
<asrwt>0</asrwt>
<pdfrwt beam="1">  1        2 0.45862690E+00 0.56626393E+03</pdfrwt>
<pdfrwt beam="2">  1       -2 0.41370576E-02 0.56626393E+03</pdfrwt>
<totfact> 0.53269023E+02</totfact>
</mgrwt>
</event>
<event>
 4      1 +1.5204000e-02 4.95973400e+02 7.81860800e-03 1.01483500e-01
        2 -1    0    0  501    0 +0.0000000000e+00 +0.0000000000e+00 +1.5074693077e+03 1.5074693077e+03 0.0000000000e+00 0.0000e+00 -1.0000e+00
       -2 -1    0    0    0  501 -0.0000000000e+00 -0.0000000000e+00 -4.0795128316e+01 4.0795128316e+01 0.0000000000e+00 0.0000e+00 1.0000e+00
     -556  1    1    2    0    0 -1.3509872604e+01 -3.0519088709e+01 +2.8765432835e+02 3.5193599425e+02 2.0000000000e+02 0.0000e+00 1.0000e+00
      556  1    1    2    0    0 +1.3509872604e+01 +3.0519088709e+01 +1.1790198511e+03 1.1963284418e+03 2.0000000000e+02 0.0000e+00 -1.0000e+00
<mgrwt>
<rscale>  0 0.49597340E+03</rscale>
<asrwt>0</asrwt>
<pdfrwt beam="1">  1        2 0.23191831E+00 0.49597340E+03</pdfrwt>
<pdfrwt beam="2">  1       -2 0.62761747E-02 0.49597340E+03</pdfrwt>
<totfact> 0.18540545E+03</totfact>
</mgrwt>
</event>
<event>
 4      1 +1.5204000e-02 6.59260100e+02 7.81860800e-03 9.78955700e-02
       -2 -1    0    0    0  501 -0.0000000000e+00 +0.0000000000e+00 +3.5427645969e+02 3.5427645969e+02 0.0000000000e+00 0.0000e+00 1.0000e+00
        2 -1    0    0  501    0 +0.0000000000e+00 -0.0000000000e+00 -3.0669823508e+02 3.0669823508e+02 0.0000000000e+00 0.0000e+00 -1.0000e+00
     -556  1    1    2    0    0 +4.8585929939e+01 +2.5159634107e+02 -3.1076640133e+01 3.2653800543e+02 2.0000000000e+02 0.0000e+00 -1.0000e+00
      556  1    1    2    0    0 -4.8585929939e+01 -2.5159634107e+02 +7.8654864742e+01 3.3443668934e+02 2.0000000000e+02 0.0000e+00 1.0000e+00
<mgrwt>
<rscale>  0 0.65926008E+03</rscale>
<asrwt>0</asrwt>
<pdfrwt beam="2">  1        2 0.47184344E-01 0.65926008E+03</pdfrwt>
<pdfrwt beam="1">  1       -2 0.54504071E-01 0.65926008E+03</pdfrwt>
<totfact> 0.34264957E+02</totfact>
</mgrwt>
</event>
<event>
 4      1 +1.5204000e-02 7.71054800e+02 7.81860800e-03 9.60288600e-02
       -2 -1    0    0    0  501 -0.0000000000e+00 +0.0000000000e+00 +3.1383910716e+02 3.1383910716e+02 0.0000000000e+00 0.0000e+00 1.0000e+00
        2 -1    0    0  501    0 +0.0000000000e+00 -0.0000000000e+00 -4.7359103398e+02 4.7359103398e+02 0.0000000000e+00 0.0000e+00 -1.0000e+00
     -556  1    1    2    0    0 -2.2285587344e+02 -2.4231204466e+02 -6.3679768549e+01 3.9042922564e+02 2.0000000000e+02 0.0000e+00 1.0000e+00
      556  1    1    2    0    0 +2.2285587344e+02 +2.4231204466e+02 -9.6072158278e+01 3.9700091550e+02 2.0000000000e+02 0.0000e+00 -1.0000e+00
<mgrwt>
<rscale>  0 0.77105483E+03</rscale>
<asrwt>0</asrwt>
<pdfrwt beam="2">  1        2 0.72860160E-01 0.77105483E+03</pdfrwt>
<pdfrwt beam="1">  1       -2 0.48282939E-01 0.77105483E+03</pdfrwt>
<totfact> 0.26853319E+02</totfact>
</mgrwt>
</event>
<event>
 4      1 +1.5204000e-02 4.62757700e+02 7.81860800e-03 1.02398400e-01
        1 -1    0    0  501    0 +0.0000000000e+00 +0.0000000000e+00 +1.8155458356e+03 1.8155458356e+03 0.0000000000e+00 0.0000e+00 -1.0000e+00
       -1 -1    0    0    0  501 -0.0000000000e+00 -0.0000000000e+00 -2.9487646692e+01 2.9487646692e+01 0.0000000000e+00 0.0000e+00 1.0000e+00
     -556  1    1    2    0    0 +7.2618286866e+00 -9.3607468352e+01 +1.1669791267e+03 1.1877101391e+03 2.0000000000e+02 0.0000e+00 -1.0000e+00
      556  1    1    2    0    0 -7.2618286866e+00 +9.3607468352e+01 +6.1907906224e+02 6.5732334326e+02 2.0000000000e+02 0.0000e+00 1.0000e+00
<mgrwt>
<rscale>  0 0.46275771E+03</rscale>
<asrwt>0</asrwt>
<pdfrwt beam="1">  1        1 0.27931466E+00 0.46275771E+03</pdfrwt>
<pdfrwt beam="2">  1       -1 0.45365624E-02 0.46275771E+03</pdfrwt>
<totfact> 0.89217506E+02</totfact>
</mgrwt>
</event>
<event>
 4      1 +1.5204000e-02 8.01312700e+02 7.81860800e-03 9.55811900e-02
        1 -1    0    0  501    0 +0.0000000000e+00 +0.0000000000e+00 +5.0866127117e+02 5.0866127117e+02 0.0000000000e+00 0.0000e+00 -1.0000e+00
       -1 -1    0    0    0  501 -0.0000000000e+00 -0.0000000000e+00 -3.1558431476e+02 3.1558431476e+02 0.0000000000e+00 0.0000e+00 1.0000e+00
     -556  1    1    2    0    0 +6.5936587958e+01 +9.1506905441e+01 -2.4119396291e+02 3.3301002255e+02 2.0000000000e+02 0.0000e+00 1.0000e+00
      556  1    1    2    0    0 -6.5936587958e+01 -9.1506905441e+01 +4.3427091931e+02 4.9123556338e+02 2.0000000000e+02 0.0000e+00 -1.0000e+00
<mgrwt>
<rscale>  0 0.80131272E+03</rscale>
<asrwt>0</asrwt>
<pdfrwt beam="1">  1        1 0.78255580E-01 0.80131272E+03</pdfrwt>
<pdfrwt beam="2">  1       -1 0.48551433E-01 0.80131272E+03</pdfrwt>
<totfact> 0.18579572E+02</totfact>
</mgrwt>
</event>
<event>
 4      1 +1.5204000e-02 5.65984500e+02 7.81860800e-03 9.97860400e-02
       -2 -1    0    0    0  501 -0.0000000000e+00 +0.0000000000e+00 +5.5929837710e+01 5.5929837710e+01 0.0000000000e+00 0.0000e+00 1.0000e+00
        2 -1    0    0  501    0 +0.0000000000e+00 -0.0000000000e+00 -1.4318764160e+03 1.4318764160e+03 0.0000000000e+00 0.0000e+00 -1.0000e+00
     -556  1    1    2    0    0 +1.4945657842e+02 +1.8390428958e+01 -3.4113224798e+02 4.2313908745e+02 2.0000000000e+02 0.0000e+00 1.0000e+00
      556  1    1    2    0    0 -1.4945657842e+02 -1.8390428958e+01 -1.0348143303e+03 1.0646671662e+03 2.0000000000e+02 0.0000e+00 -1.0000e+00
<mgrwt>
<rscale>  0 0.56598451E+03</rscale>
<asrwt>0</asrwt>
<pdfrwt beam="2">  1        2 0.22028870E+00 0.56598451E+03</pdfrwt>
<pdfrwt beam="1">  1       -2 0.86045894E-02 0.56598451E+03</pdfrwt>
<totfact> 0.12360547E+03</totfact>
</mgrwt>
</event>
<event>
 4      1 +1.5204000e-02 6.36195000e+02 7.81860800e-03 9.83303400e-02
        2 -1    0    0  501    0 +0.0000000000e+00 +0.0000000000e+00 +1.5362706461e+02 1.5362706461e+02 0.0000000000e+00 0.0000e+00 1.0000e+00
       -2 -1    0    0    0  501 -0.0000000000e+00 -0.0000000000e+00 -6.5864699507e+02 6.5864699507e+02 0.0000000000e+00 0.0000e+00 -1.0000e+00
     -556  1    1    2    0    0 +7.9142826566e+01 -2.6305933512e+01 +4.4816679570e+01 2.2127838553e+02 2.0000000000e+02 0.0000e+00 1.0000e+00
      556  1    1    2    0    0 -7.9142826566e+01 +2.6305933512e+01 -5.4983661003e+02 5.9099567415e+02 2.0000000000e+02 0.0000e+00 -1.0000e+00
<mgrwt>
<rscale>  0 0.63619495E+03</rscale>
<asrwt>0</asrwt>
<pdfrwt beam="1">  1        2 0.23634933E-01 0.63619495E+03</pdfrwt>
<pdfrwt beam="2">  1       -2 0.10133031E+00 0.63619495E+03</pdfrwt>
<totfact> 0.18935795E+02</totfact>
</mgrwt>
</event>
<event>
 4      1 +1.5204000e-02 7.04308500e+02 7.81860800e-03 9.70989200e-02
       -2 -1    0    0    0  501 -0.0000000000e+00 +0.0000000000e+00 +2.7559043984e+02 2.7559043984e+02 0.0000000000e+00 0.0000e+00 -1.0000e+00
        2 -1    0    0  501    0 +0.0000000000e+00 -0.0000000000e+00 -4.4998880894e+02 4.4998880894e+02 0.0000000000e+00 0.0000e+00 1.0000e+00
     -556  1    1    2    0    0 -4.2380067592e+00 -1.6641726434e+02 -3.3164123678e+02 4.2154308974e+02 2.0000000000e+02 0.0000e+00 1.0000e+00
      556  1    1    2    0    0 +4.2380067592e+00 +1.6641726434e+02 +1.5724286768e+02 3.0403615905e+02 2.0000000000e+02 0.0000e+00 -1.0000e+00
<mgrwt>
<rscale>  0 0.70430849E+03</rscale>
<asrwt>0</asrwt>
<pdfrwt beam="2">  1        2 0.69229048E-01 0.70430849E+03</pdfrwt>
<pdfrwt beam="1">  1       -2 0.42398529E-01 0.70430849E+03</pdfrwt>
<totfact> 0.36977951E+02</totfact>
</mgrwt>
</event>
<event>
 4      1 +1.5204000e-02 4.33087800e+02 7.81860800e-03 1.03288900e-01
        1 -1    0    0  501    0 +0.0000000000e+00 +0.0000000000e+00 +1.5525084660e+02 1.5525084660e+02 0.0000000000e+00 0.0000e+00 -1.0000e+00
       -1 -1    0    0    0  501 -0.0000000000e+00 -0.0000000000e+00 -3.0203540500e+02 3.0203540500e+02 0.0000000000e+00 0.0000e+00 1.0000e+00
     -556  1    1    2    0    0 -1.5012766332e+01 +6.7687266425e+01 -1.2159734439e+02 2.4411649545e+02 2.0000000000e+02 0.0000e+00 1.0000e+00
      556  1    1    2    0    0 +1.5012766332e+01 -6.7687266425e+01 -2.5187214014e+01 2.1316975615e+02 2.0000000000e+02 0.0000e+00 -1.0000e+00
<mgrwt>
<rscale>  0 0.43308776E+03</rscale>
<asrwt>0</asrwt>
<pdfrwt beam="1">  1        1 0.23884745E-01 0.43308776E+03</pdfrwt>
<pdfrwt beam="2">  1       -1 0.46466986E-01 0.43308776E+03</pdfrwt>
<totfact> 0.95850002E+02</totfact>
</mgrwt>
</event>
<event>
 4      1 +1.5204000e-02 4.77216800e+02 7.81860800e-03 1.01990300e-01
       -3 -1    0    0    0  501 -0.0000000000e+00 +0.0000000000e+00 +7.5084951599e+02 7.5084951599e+02 0.0000000000e+00 0.0000e+00 1.0000e+00
        3 -1    0    0  501    0 +0.0000000000e+00 -0.0000000000e+00 -7.5826057660e+01 7.5826057660e+01 0.0000000000e+00 0.0000e+00 -1.0000e+00
     -556  1    1    2    0    0 -1.2047871745e+02 -2.5827971144e+00 +2.5243259547e+02 3.4386626391e+02 2.0000000000e+02 0.0000e+00 1.0000e+00
      556  1    1    2    0    0 +1.2047871745e+02 +2.5827971144e+00 +4.2259086286e+02 4.8280930974e+02 2.0000000000e+02 0.0000e+00 -1.0000e+00
<mgrwt>
<rscale>  0 0.47721676E+03</rscale>
<asrwt>0</asrwt>
<pdfrwt beam="2">  1        3 0.11665548E-01 0.47721676E+03</pdfrwt>
<pdfrwt beam="1">  1       -3 0.11551531E+00 0.47721676E+03</pdfrwt>
<totfact> 0.95738852E+01</totfact>
</mgrwt>
</event>
<event>
 4      1 +1.5204000e-02 7.23750800e+02 7.81860800e-03 9.67745600e-02
        2 -1    0    0  501    0 +0.0000000000e+00 +0.0000000000e+00 +3.2810924633e+02 3.2810924633e+02 0.0000000000e+00 0.0000e+00 1.0000e+00
       -2 -1    0    0    0  501 -0.0000000000e+00 -0.0000000000e+00 -3.9911650144e+02 3.9911650144e+02 0.0000000000e+00 0.0000e+00 -1.0000e+00
     -556  1    1    2    0    0 -1.8530401299e+01 -2.5896944722e+02 +1.1867776286e+02 3.4855840510e+02 2.0000000000e+02 0.0000e+00 1.0000e+00
      556  1    1    2    0    0 +1.8530401299e+01 +2.5896944722e+02 -1.8968501797e+02 3.7866734268e+02 2.0000000000e+02 0.0000e+00 -1.0000e+00
<mgrwt>
<rscale>  0 0.72375083E+03</rscale>
<asrwt>0</asrwt>
<pdfrwt beam="1">  1        2 0.50478346E-01 0.72375083E+03</pdfrwt>
<pdfrwt beam="2">  1       -2 0.61402539E-01 0.72375083E+03</pdfrwt>
<totfact> 0.24728720E+02</totfact>
</mgrwt>
</event>
<event>
 4      1 +1.5204000e-02 1.05088500e+03 7.81860800e-03 9.25443100e-02
        1 -1    0    0  501    0 +0.0000000000e+00 +0.0000000000e+00 +5.4105178281e+02 5.4105178281e+02 0.0000000000e+00 0.0000e+00 -1.0000e+00
       -1 -1    0    0    0  501 -0.0000000000e+00 -0.0000000000e+00 -5.1028372955e+02 5.1028372955e+02 0.0000000000e+00 0.0000e+00 1.0000e+00
     -556  1    1    2    0    0 -8.7986474653e+00 +4.3157607168e+02 +2.3853700135e+02 5.3219848070e+02 2.0000000000e+02 0.0000e+00 -1.0000e+00
      556  1    1    2    0    0 +8.7986474653e+00 -4.3157607168e+02 -2.0776894810e+02 5.1913703166e+02 2.0000000000e+02 0.0000e+00 1.0000e+00
<mgrwt>
<rscale>  0 0.10508852E+04</rscale>
<asrwt>0</asrwt>
<pdfrwt beam="1">  1        1 0.83238736E-01 0.10508852E+04</pdfrwt>
<pdfrwt beam="2">  1       -1 0.78505189E-01 0.10508852E+04</pdfrwt>
<totfact> 0.64472744E+01</totfact>
</mgrwt>
</event>
<event>
 4      1 +1.5204000e-02 9.51237900e+02 7.81860800e-03 9.36370500e-02
       -1 -1    0    0    0  501 -0.0000000000e+00 +0.0000000000e+00 +6.5741817252e+02 6.5741817252e+02 0.0000000000e+00 0.0000e+00 1.0000e+00
        1 -1    0    0  501    0 +0.0000000000e+00 -0.0000000000e+00 -3.4409361701e+02 3.4409361701e+02 0.0000000000e+00 0.0000e+00 -1.0000e+00
     -556  1    1    2    0    0 +1.2910620974e+02 +2.7558640757e+01 +5.8921045200e+02 6.3607927872e+02 2.0000000000e+02 0.0000e+00 1.0000e+00
      556  1    1    2    0    0 -1.2910620974e+02 -2.7558640757e+01 -2.7588589649e+02 3.6543251080e+02 2.0000000000e+02 0.0000e+00 -1.0000e+00
<mgrwt>
<rscale>  0 0.95123792E+03</rscale>
<asrwt>0</asrwt>
<pdfrwt beam="2">  1        1 0.52937480E-01 0.95123792E+03</pdfrwt>
<pdfrwt beam="1">  1       -1 0.10114126E+00 0.95123792E+03</pdfrwt>
<totfact> 0.68413453E+01</totfact>
</mgrwt>
</event>
<event>
 4      1 +1.5204000e-02 7.21811600e+02 7.81860800e-03 9.68064200e-02
        1 -1    0    0  501    0 +0.0000000000e+00 +0.0000000000e+00 +1.1549118649e+03 1.1549118649e+03 0.0000000000e+00 0.0000e+00 -1.0000e+00
       -1 -1    0    0    0  501 -0.0000000000e+00 -0.0000000000e+00 -1.1278176192e+02 1.1278176192e+02 0.0000000000e+00 0.0000e+00 1.0000e+00
     -556  1    1    2    0    0 +1.7812706793e+02 -5.0351096689e+01 +1.0549914899e+02 2.9222346878e+02 2.0000000000e+02 0.0000e+00 1.0000e+00
      556  1    1    2    0    0 -1.7812706793e+02 +5.0351096689e+01 +9.3663095394e+02 9.7547015800e+02 2.0000000000e+02 0.0000e+00 -1.0000e+00
<mgrwt>
<rscale>  0 0.72181160E+03</rscale>
<asrwt>0</asrwt>
<pdfrwt beam="1">  1        1 0.17767874E+00 0.72181160E+03</pdfrwt>
<pdfrwt beam="2">  1       -1 0.17351041E-01 0.72181160E+03</pdfrwt>
<totfact> 0.30296961E+02</totfact>
</mgrwt>
</event>
<event>
 4      1 +1.5204000e-02 1.29218800e+03 7.81860800e-03 9.03578300e-02
       -1 -1    0    0    0  501 -0.0000000000e+00 +0.0000000000e+00 +2.8675693748e+02 2.8675693748e+02 0.0000000000e+00 0.0000e+00 1.0000e+00
        1 -1    0    0  501    0 +0.0000000000e+00 -0.0000000000e+00 -1.4557182069e+03 1.4557182069e+03 0.0000000000e+00 0.0000e+00 -1.0000e+00
     -556  1    1    2    0    0 +5.8894244025e+02 -4.6493457518e+01 -8.1181849535e+02 1.0237500227e+03 2.0000000000e+02 0.0000e+00 -1.0000e+00
      556  1    1    2    0    0 -5.8894244025e+02 +4.6493457518e+01 -3.5714277409e+02 7.1872512173e+02 2.0000000000e+02 0.0000e+00 1.0000e+00
<mgrwt>
<rscale>  0 0.12921877E+04</rscale>
<asrwt>0</asrwt>
<pdfrwt beam="2">  1        1 0.22395664E+00 0.12921877E+04</pdfrwt>
<pdfrwt beam="1">  1       -1 0.44116452E-01 0.12921877E+04</pdfrwt>
<totfact> 0.35079917E+01</totfact>
</mgrwt>
</event>
<event>
 4      1 +1.5204000e-02 5.49820400e+02 7.81860800e-03 1.00153600e-01
       -2 -1    0    0    0  501 -0.0000000000e+00 +0.0000000000e+00 +9.6918782320e+01 9.6918782320e+01 0.0000000000e+00 0.0000e+00 1.0000e+00
        2 -1    0    0  501    0 +0.0000000000e+00 -0.0000000000e+00 -7.7978292006e+02 7.7978292006e+02 0.0000000000e+00 0.0000e+00 -1.0000e+00
     -556  1    1    2    0    0 -1.2203481535e+02 -1.2890861011e+02 -2.3976088204e+02 3.5915902672e+02 2.0000000000e+02 0.0000e+00 1.0000e+00
      556  1    1    2    0    0 +1.2203481535e+02 +1.2890861011e+02 -4.4310325569e+02 5.1754267565e+02 2.0000000000e+02 0.0000e+00 -1.0000e+00
<mgrwt>
<rscale>  0 0.54982037E+03</rscale>
<asrwt>0</asrwt>
<pdfrwt beam="2">  1        2 0.11996660E+00 0.54982037E+03</pdfrwt>
<pdfrwt beam="1">  1       -2 0.14910582E-01 0.54982037E+03</pdfrwt>
<totfact> 0.12663442E+03</totfact>
</mgrwt>
</event>
<event>
 4      1 +1.5204000e-02 6.85593700e+02 7.81860800e-03 9.74219100e-02
       -2 -1    0    0    0  501 -0.0000000000e+00 +0.0000000000e+00 +9.2084108889e+01 9.2084108889e+01 0.0000000000e+00 0.0000e+00 1.0000e+00
        2 -1    0    0  501    0 +0.0000000000e+00 -0.0000000000e+00 -1.2761124072e+03 1.2761124072e+03 0.0000000000e+00 0.0000e+00 -1.0000e+00
     -556  1    1    2    0    0 +1.7691954612e+02 +4.0928945637e+01 -1.0131550072e+03 1.0485507966e+03 2.0000000000e+02 0.0000e+00 -1.0000e+00
      556  1    1    2    0    0 -1.7691954612e+02 -4.0928945637e+01 -1.7087329113e+02 3.1964571953e+02 2.0000000000e+02 0.0000e+00 1.0000e+00
<mgrwt>
<rscale>  0 0.68559368E+03</rscale>
<asrwt>0</asrwt>
<pdfrwt beam="2">  1        2 0.19632497E+00 0.68559368E+03</pdfrwt>
<pdfrwt beam="1">  1       -2 0.14166787E-01 0.68559368E+03</pdfrwt>
<totfact> 0.66607543E+02</totfact>
</mgrwt>
</event>
<event>
 4      1 +1.5204000e-02 5.19284200e+02 7.81860800e-03 1.00886500e-01
        2 -1    0    0  501    0 +0.0000000000e+00 +0.0000000000e+00 +3.5005899998e+02 3.5005899998e+02 0.0000000000e+00 0.0000e+00 -1.0000e+00
       -2 -1    0    0    0  501 -0.0000000000e+00 -0.0000000000e+00 -1.9257903118e+02 1.9257903118e+02 0.0000000000e+00 0.0000e+00 1.0000e+00
     -556  1    1    2    0    0 -5.2620011223e+01 +8.4978389474e+01 -5.9195794847e+01 2.3128842251e+02 2.0000000000e+02 0.0000e+00 1.0000e+00
      556  1    1    2    0    0 +5.2620011223e+01 -8.4978389474e+01 +2.1667576365e+02 3.1134960866e+02 2.0000000000e+02 0.0000e+00 -1.0000e+00
<mgrwt>
<rscale>  0 0.51928421E+03</rscale>
<asrwt>0</asrwt>
<pdfrwt beam="1">  1        2 0.53855231E-01 0.51928421E+03</pdfrwt>
<pdfrwt beam="2">  1       -2 0.29627543E-01 0.51928421E+03</pdfrwt>
<totfact> 0.97166488E+02</totfact>
</mgrwt>
</event>
<event>
 4      1 +1.5204000e-02 5.07350400e+02 7.81860800e-03 1.01187800e-01
       -1 -1    0    0    0  501 -0.0000000000e+00 +0.0000000000e+00 +1.7831575107e+03 1.7831575107e+03 0.0000000000e+00 0.0000e+00 1.0000e+00
        1 -1    0    0  501    0 +0.0000000000e+00 -0.0000000000e+00 -3.6088297053e+01 3.6088297053e+01 0.0000000000e+00 0.0000e+00 -1.0000e+00
     -556  1    1    2    0    0 +3.4455517769e+01 -1.4921068931e+02 +7.6595498084e+02 8.0631138227e+02 2.0000000000e+02 0.0000e+00 1.0000e+00
      556  1    1    2    0    0 -3.4455517769e+01 +1.4921068931e+02 +9.8111423283e+02 1.0129344255e+03 2.0000000000e+02 0.0000e+00 -1.0000e+00
<mgrwt>
<rscale>  0 0.50735044E+03</rscale>
<asrwt>0</asrwt>
<pdfrwt beam="2">  1        1 0.55520471E-02 0.50735044E+03</pdfrwt>
<pdfrwt beam="1">  1       -1 0.27433186E+00 0.50735044E+03</pdfrwt>
<totfact> 0.78238036E+01</totfact>
</mgrwt>
</event>
<event>
 4      1 +1.5204000e-02 6.50506100e+02 7.81860800e-03 9.80583000e-02
       -2 -1    0    0    0  501 -0.0000000000e+00 +0.0000000000e+00 +4.0388044657e+02 4.0388044657e+02 0.0000000000e+00 0.0000e+00 1.0000e+00
        2 -1    0    0  501    0 +0.0000000000e+00 -0.0000000000e+00 -2.6193283789e+02 2.6193283789e+02 0.0000000000e+00 0.0000e+00 -1.0000e+00
     -556  1    1    2    0    0 +6.0002391615e+01 -1.3994986977e+02 +2.8223643570e+02 3.7794663471e+02 2.0000000000e+02 0.0000e+00 1.0000e+00
      556  1    1    2    0    0 -6.0002391615e+01 +1.3994986977e+02 -1.4028882703e+02 2.8786664975e+02 2.0000000000e+02 0.0000e+00 -1.0000e+00
<mgrwt>
<rscale>  0 0.65050612E+03</rscale>
<asrwt>0</asrwt>
<pdfrwt beam="2">  1        2 0.40297360E-01 0.65050612E+03</pdfrwt>
<pdfrwt beam="1">  1       -2 0.62135453E-01 0.65050612E+03</pdfrwt>
<totfact> 0.31023068E+02</totfact>
</mgrwt>
</event>
<event>
 4      1 +1.5204000e-02 8.36031800e+02 7.81860800e-03 9.50927900e-02
        2 -1    0    0  501    0 +0.0000000000e+00 +0.0000000000e+00 +5.3232428485e+02 5.3232428485e+02 0.0000000000e+00 0.0000e+00 -1.0000e+00
       -2 -1    0    0    0  501 -0.0000000000e+00 -0.0000000000e+00 -3.2825346422e+02 3.2825346422e+02 0.0000000000e+00 0.0000e+00 1.0000e+00
     -556  1    1    2    0    0 -2.8534633023e+02 -5.0762342473e+01 -1.2982882455e+02 3.7530636455e+02 2.0000000000e+02 0.0000e+00 1.0000e+00
      556  1    1    2    0    0 +2.8534633023e+02 +5.0762342473e+01 +3.3389964517e+02 4.8527138452e+02 2.0000000000e+02 0.0000e+00 -1.0000e+00
<mgrwt>
<rscale>  0 0.83603180E+03</rscale>
<asrwt>0</asrwt>
<pdfrwt beam="1">  1        2 0.81896044E-01 0.83603180E+03</pdfrwt>
<pdfrwt beam="2">  1       -2 0.50500533E-01 0.83603180E+03</pdfrwt>
<totfact> 0.21342808E+02</totfact>
</mgrwt>
</event>
<event>
 4      1 +1.5204000e-02 8.82431200e+02 7.81860800e-03 9.44781400e-02
        2 -1    0    0  501    0 +0.0000000000e+00 +0.0000000000e+00 +9.2133947367e+02 9.2133947367e+02 0.0000000000e+00 0.0000e+00 -1.0000e+00
       -2 -1    0    0    0  501 -0.0000000000e+00 -0.0000000000e+00 -2.1129149649e+02 2.1129149649e+02 0.0000000000e+00 0.0000e+00 1.0000e+00
     -556  1    1    2    0    0 +2.6489055826e+02 +1.2648564731e+02 +1.9077173433e+01 3.5570994557e+02 2.0000000000e+02 0.0000e+00 1.0000e+00
      556  1    1    2    0    0 -2.6489055826e+02 -1.2648564731e+02 +6.9097080374e+02 7.7692102459e+02 2.0000000000e+02 0.0000e+00 -1.0000e+00
<mgrwt>
<rscale>  0 0.88243118E+03</rscale>
<asrwt>0</asrwt>
<pdfrwt beam="1">  1        2 0.14174453E+00 0.88243118E+03</pdfrwt>
<pdfrwt beam="2">  1       -2 0.32506384E-01 0.88243118E+03</pdfrwt>
<totfact> 0.25065607E+02</totfact>
</mgrwt>
</event>
<event>
 4      1 +1.5204000e-02 4.61465100e+02 7.81860800e-03 1.02435700e-01
       -2 -1    0    0    0  501 -0.0000000000e+00 +0.0000000000e+00 +9.7680454774e+01 9.7680454774e+01 0.0000000000e+00 0.0000e+00 1.0000e+00
        2 -1    0    0  501    0 +0.0000000000e+00 -0.0000000000e+00 -5.4501710360e+02 5.4501710360e+02 0.0000000000e+00 0.0000e+00 -1.0000e+00
     -556  1    1    2    0    0 -1.0870896221e+02 +6.4523518570e+00 -1.7196347036e+02 2.8536066030e+02 2.0000000000e+02 0.0000e+00 1.0000e+00
      556  1    1    2    0    0 +1.0870896221e+02 -6.4523518570e+00 -2.7537317847e+02 3.5733689808e+02 2.0000000000e+02 0.0000e+00 -1.0000e+00
<mgrwt>
<rscale>  0 0.46146514E+03</rscale>
<asrwt>0</asrwt>
<pdfrwt beam="2">  1        2 0.83848787E-01 0.46146514E+03</pdfrwt>
<pdfrwt beam="1">  1       -2 0.15027762E-01 0.46146514E+03</pdfrwt>
<totfact> 0.19362572E+03</totfact>
</mgrwt>
</event>
<event>
 4      1 +1.5204000e-02 4.86573200e+02 7.81860800e-03 1.01734400e-01
        1 -1    0    0  501    0 +0.0000000000e+00 +0.0000000000e+00 +2.7369746524e+02 2.7369746524e+02 0.0000000000e+00 0.0000e+00 -1.0000e+00
       -1 -1    0    0    0  501 -0.0000000000e+00 -0.0000000000e+00 -2.1625475761e+02 2.1625475761e+02 0.0000000000e+00 0.0000e+00 1.0000e+00
     -556  1    1    2    0    0 -4.1311192162e+01 +1.1271641641e+02 -4.0872815472e+01 2.3681679031e+02 2.0000000000e+02 0.0000e+00 -1.0000e+00
      556  1    1    2    0    0 +4.1311192162e+01 -1.1271641641e+02 +9.8315523094e+01 2.5313543254e+02 2.0000000000e+02 0.0000e+00 1.0000e+00
<mgrwt>
<rscale>  0 0.48657324E+03</rscale>
<asrwt>0</asrwt>
<pdfrwt beam="1">  1        1 0.42107302E-01 0.48657324E+03</pdfrwt>
<pdfrwt beam="2">  1       -1 0.33269963E-01 0.48657324E+03</pdfrwt>
<totfact> 0.84351728E+02</totfact>
</mgrwt>
</event>
<event>
 4      1 +1.5204000e-02 7.18601800e+02 7.81860800e-03 9.68593900e-02
        1 -1    0    0  501    0 +0.0000000000e+00 +0.0000000000e+00 +4.2792305669e+02 4.2792305669e+02 0.0000000000e+00 0.0000e+00 -1.0000e+00
       -1 -1    0    0    0  501 -0.0000000000e+00 -0.0000000000e+00 -3.0168305770e+02 3.0168305770e+02 0.0000000000e+00 0.0000e+00 1.0000e+00
     -556  1    1    2    0    0 -5.9493496432e+01 -2.8945608326e+02 +2.0370164768e+01 3.5740627284e+02 2.0000000000e+02 0.0000e+00 1.0000e+00
      556  1    1    2    0    0 +5.9493496432e+01 +2.8945608326e+02 +1.0586983422e+02 3.7219984155e+02 2.0000000000e+02 0.0000e+00 -1.0000e+00
<mgrwt>
<rscale>  0 0.71860180E+03</rscale>
<asrwt>0</asrwt>
<pdfrwt beam="1">  1        1 0.65834316E-01 0.71860180E+03</pdfrwt>
<pdfrwt beam="2">  1       -1 0.46412778E-01 0.71860180E+03</pdfrwt>
<totfact> 0.25662440E+02</totfact>
</mgrwt>
</event>
<event>
 4      1 +1.5204000e-02 1.20917800e+03 7.81860800e-03 9.10486100e-02
        2 -1    0    0  501    0 +0.0000000000e+00 +0.0000000000e+00 +2.9901956181e+03 2.9901956181e+03 0.0000000000e+00 0.0000e+00 -1.0000e+00
       -2 -1    0    0    0  501 -0.0000000000e+00 -0.0000000000e+00 -1.2224207337e+02 1.2224207337e+02 0.0000000000e+00 0.0000e+00 1.0000e+00
     -556  1    1    2    0    0 +4.1189674878e+02 +3.2964697091e+02 +8.7474848701e+02 1.0409183314e+03 2.0000000000e+02 0.0000e+00 -1.0000e+00
      556  1    1    2    0    0 -4.1189674878e+02 -3.2964697091e+02 +1.9932050577e+03 2.0715193601e+03 2.0000000000e+02 0.0000e+00 1.0000e+00
<mgrwt>
<rscale>  0 0.12091778E+04</rscale>
<asrwt>0</asrwt>
<pdfrwt beam="1">  1        2 0.46003004E+00 0.12091778E+04</pdfrwt>
<pdfrwt beam="2">  1       -2 0.18806475E-01 0.12091778E+04</pdfrwt>
<totfact> 0.42047300E+01</totfact>
</mgrwt>
</event>
<event>
 4      1 +1.5204000e-02 5.80917200e+02 7.81860800e-03 9.94580700e-02
        2 -1    0    0  501    0 +0.0000000000e+00 +0.0000000000e+00 +2.1805458116e+02 2.1805458116e+02 0.0000000000e+00 0.0000e+00 -1.0000e+00
       -2 -1    0    0    0  501 -0.0000000000e+00 -0.0000000000e+00 -3.8690403750e+02 3.8690403750e+02 0.0000000000e+00 0.0000e+00 1.0000e+00
     -556  1    1    2    0    0 +1.3667535089e+02 +1.3958700523e+02 -1.6643350002e+02 3.2536870393e+02 2.0000000000e+02 0.0000e+00 1.0000e+00
      556  1    1    2    0    0 -1.3667535089e+02 -1.3958700523e+02 -2.4159563148e+00 2.7958991472e+02 2.0000000000e+02 0.0000e+00 -1.0000e+00
<mgrwt>
<rscale>  0 0.58091720E+03</rscale>
<asrwt>0</asrwt>
<pdfrwt beam="1">  1        2 0.33546859E-01 0.58091720E+03</pdfrwt>
<pdfrwt beam="2">  1       -2 0.59523698E-01 0.58091720E+03</pdfrwt>
<totfact> 0.41712042E+02</totfact>
</mgrwt>
</event>
<event>
 4      1 +1.5204000e-02 4.59876400e+02 7.81860800e-03 1.02481700e-01
        1 -1    0    0  501    0 +0.0000000000e+00 +0.0000000000e+00 +9.9547517054e+02 9.9547517054e+02 0.0000000000e+00 0.0000e+00 -1.0000e+00
       -1 -1    0    0    0  501 -0.0000000000e+00 -0.0000000000e+00 -5.3111908671e+01 5.3111908671e+01 0.0000000000e+00 0.0000e+00 1.0000e+00
     -556  1    1    2    0    0 -1.0081391570e+00 -7.7383479253e+01 +2.8202034668e+02 3.5429464454e+02 2.0000000000e+02 0.0000e+00 1.0000e+00
      556  1    1    2    0    0 +1.0081391570e+00 +7.7383479253e+01 +6.6034291518e+02 6.9429243467e+02 2.0000000000e+02 0.0000e+00 -1.0000e+00
<mgrwt>
<rscale>  0 0.45987645E+03</rscale>
<asrwt>0</asrwt>
<pdfrwt beam="1">  1        1 0.15315001E+00 0.45987645E+03</pdfrwt>
<pdfrwt beam="2">  1       -1 0.81710636E-02 0.45987645E+03</pdfrwt>
<totfact> 0.13401262E+03</totfact>
</mgrwt>
</event>
<event>
 4      1 +1.5204000e-02 5.18006100e+02 7.81860800e-03 1.00918300e-01
        2 -1    0    0  501    0 +0.0000000000e+00 +0.0000000000e+00 +3.4248591283e+02 3.4248591283e+02 0.0000000000e+00 0.0000e+00 -1.0000e+00
       -2 -1    0    0    0  501 -0.0000000000e+00 -0.0000000000e+00 -1.9586957737e+02 1.9586957737e+02 0.0000000000e+00 0.0000e+00 1.0000e+00
     -556  1    1    2    0    0 +1.3724691914e+02 -2.0421764002e+01 +1.6526458868e+02 2.9422125948e+02 2.0000000000e+02 0.0000e+00 -1.0000e+00
      556  1    1    2    0    0 -1.3724691914e+02 +2.0421764002e+01 -1.8648253233e+01 2.4413423072e+02 2.0000000000e+02 0.0000e+00 1.0000e+00
<mgrwt>
<rscale>  0 0.51800607E+03</rscale>
<asrwt>0</asrwt>
<pdfrwt beam="1">  1        2 0.52690140E-01 0.51800607E+03</pdfrwt>
<pdfrwt beam="2">  1       -2 0.30133781E-01 0.51800607E+03</pdfrwt>
<totfact> 0.96484039E+02</totfact>
</mgrwt>
</event>
<event>
 4      1 +1.5204000e-02 5.28869400e+02 7.81860800e-03 1.00650700e-01
        1 -1    0    0  501    0 +0.0000000000e+00 +0.0000000000e+00 +8.5459472435e+02 8.5459472435e+02 0.0000000000e+00 0.0000e+00 -1.0000e+00
       -1 -1    0    0    0  501 -0.0000000000e+00 -0.0000000000e+00 -8.1823233580e+01 8.1823233580e+01 0.0000000000e+00 0.0000e+00 1.0000e+00
     -556  1    1    2    0    0 +3.7541729129e+01 -1.6239239667e+02 +4.6839033978e+02 5.3588261991e+02 2.0000000000e+02 0.0000e+00 1.0000e+00
      556  1    1    2    0    0 -3.7541729129e+01 +1.6239239667e+02 +3.0438115098e+02 4.0053533801e+02 2.0000000000e+02 0.0000e+00 -1.0000e+00
<mgrwt>
<rscale>  0 0.52886937E+03</rscale>
<asrwt>0</asrwt>
<pdfrwt beam="1">  1        1 0.13147611E+00 0.52886937E+03</pdfrwt>
<pdfrwt beam="2">  1       -1 0.12588190E-01 0.52886937E+03</pdfrwt>
<totfact> 0.87709051E+02</totfact>
</mgrwt>
</event>
<event>
 4      1 +1.5204000e-02 5.14528400e+02 7.81860800e-03 1.01005500e-01
        1 -1    0    0  501    0 +0.0000000000e+00 +0.0000000000e+00 +2.3792834959e+02 2.3792834959e+02 0.0000000000e+00 0.0000e+00 -1.0000e+00
       -1 -1    0    0    0  501 -0.0000000000e+00 -0.0000000000e+00 -2.7817139230e+02 2.7817139230e+02 0.0000000000e+00 0.0000e+00 1.0000e+00
     -556  1    1    2    0    0 -1.4305141503e+01 +1.2097099792e+02 -1.2696556532e+02 2.6638106950e+02 2.0000000000e+02 0.0000e+00 1.0000e+00
      556  1    1    2    0    0 +1.4305141503e+01 -1.2097099792e+02 +8.6722522612e+01 2.4971867239e+02 2.0000000000e+02 0.0000e+00 -1.0000e+00
<mgrwt>
<rscale>  0 0.51452837E+03</rscale>
<asrwt>0</asrwt>
<pdfrwt beam="1">  1        1 0.36604362E-01 0.51452837E+03</pdfrwt>
<pdfrwt beam="2">  1       -1 0.42795599E-01 0.51452837E+03</pdfrwt>
<totfact> 0.64324682E+02</totfact>
</mgrwt>
</event>
<event>
 4      1 +1.5204000e-02 1.32022200e+03 7.81860800e-03 9.01368100e-02
       -1 -1    0    0    0  501 -0.0000000000e+00 +0.0000000000e+00 +2.9822209658e+02 2.9822209658e+02 0.0000000000e+00 0.0000e+00 1.0000e+00
        1 -1    0    0  501    0 +0.0000000000e+00 -0.0000000000e+00 -1.4611468854e+03 1.4611468854e+03 0.0000000000e+00 0.0000e+00 -1.0000e+00
     -556  1    1    2    0    0 +4.8287731800e+02 -3.3295778768e+02 -8.8451492230e+02 1.0799990928e+03 2.0000000000e+02 0.0000e+00 1.0000e+00
      556  1    1    2    0    0 -4.8287731800e+02 +3.3295778768e+02 -2.7840986656e+02 6.7936988924e+02 2.0000000000e+02 0.0000e+00 -1.0000e+00
<mgrwt>
<rscale>  0 0.13202216E+04</rscale>
<asrwt>0</asrwt>
<pdfrwt beam="2">  1        1 0.22479182E+00 0.13202216E+04</pdfrwt>
<pdfrwt beam="1">  1       -1 0.45880324E-01 0.13202216E+04</pdfrwt>
<totfact> 0.32250357E+01</totfact>
</mgrwt>
</event>
<event>
 4      1 +1.5204000e-02 5.75654800e+02 7.81860800e-03 9.95724300e-02
       -1 -1    0    0    0  501 -0.0000000000e+00 +0.0000000000e+00 +8.1941089117e+01 8.1941089117e+01 0.0000000000e+00 0.0000e+00 1.0000e+00
        1 -1    0    0  501    0 +0.0000000000e+00 -0.0000000000e+00 -1.0110265087e+03 1.0110265087e+03 0.0000000000e+00 0.0000e+00 -1.0000e+00
     -556  1    1    2    0    0 -6.1358928905e+01 -7.4153215834e+01 -8.1247275884e+02 8.4224438344e+02 2.0000000000e+02 0.0000e+00 -1.0000e+00
      556  1    1    2    0    0 +6.1358928905e+01 +7.4153215834e+01 -1.1661266071e+02 2.5072321435e+02 2.0000000000e+02 0.0000e+00 1.0000e+00
<mgrwt>
<rscale>  0 0.57565480E+03</rscale>
<asrwt>0</asrwt>
<pdfrwt beam="2">  1        1 0.15554254E+00 0.57565480E+03</pdfrwt>
<pdfrwt beam="1">  1       -1 0.12606322E-01 0.57565480E+03</pdfrwt>
<totfact> 0.65636546E+02</totfact>
</mgrwt>
</event>
<event>
 4      1 +1.5204000e-02 4.99214300e+02 7.81860800e-03 1.01398400e-01
        1 -1    0    0  501    0 +0.0000000000e+00 +0.0000000000e+00 +6.6425290273e+02 6.6425290273e+02 0.0000000000e+00 0.0000e+00 -1.0000e+00
       -1 -1    0    0    0  501 -0.0000000000e+00 -0.0000000000e+00 -9.3795182324e+01 9.3795182324e+01 0.0000000000e+00 0.0000e+00 1.0000e+00
     -556  1    1    2    0    0 +6.8422341397e+01 -9.3711777473e+01 +4.2800019068e+02 4.8646446660e+02 2.0000000000e+02 0.0000e+00 -1.0000e+00
      556  1    1    2    0    0 -6.8422341397e+01 +9.3711777473e+01 +1.4245752973e+02 2.7158361846e+02 2.0000000000e+02 0.0000e+00 1.0000e+00
<mgrwt>
<rscale>  0 0.49921427E+03</rscale>
<asrwt>0</asrwt>
<pdfrwt beam="1">  1        1 0.10219275E+00 0.49921427E+03</pdfrwt>
<pdfrwt beam="2">  1       -1 0.14430028E-01 0.49921427E+03</pdfrwt>
<totfact> 0.10397084E+03</totfact>
</mgrwt>
</event>
<event>
 4      1 +1.5204000e-02 9.38047700e+02 7.81860800e-03 9.37923100e-02
       -1 -1    0    0    0  501 -0.0000000000e+00 +0.0000000000e+00 +1.5745357097e+02 1.5745357097e+02 0.0000000000e+00 0.0000e+00 1.0000e+00
        1 -1    0    0  501    0 +0.0000000000e+00 -0.0000000000e+00 -1.3971315525e+03 1.3971315525e+03 0.0000000000e+00 0.0000e+00 -1.0000e+00
     -556  1    1    2    0    0 -2.9359330794e+02 +9.4414205253e+01 -1.3703312575e+02 3.9228707623e+02 2.0000000000e+02 0.0000e+00 1.0000e+00
      556  1    1    2    0    0 +2.9359330794e+02 -9.4414205253e+01 -1.1026448558e+03 1.1622980472e+03 2.0000000000e+02 0.0000e+00 -1.0000e+00
<mgrwt>
<rscale>  0 0.93804766E+03</rscale>
<asrwt>0</asrwt>
<pdfrwt beam="2">  1        1 0.21494332E+00 0.93804766E+03</pdfrwt>
<pdfrwt beam="1">  1       -1 0.24223626E-01 0.93804766E+03</pdfrwt>
<totfact> 0.11477431E+02</totfact>
</mgrwt>
</event>
<event>
 4      1 +1.5204000e-02 5.07209400e+02 7.81860800e-03 1.01191400e-01
        3 -1    0    0  501    0 +0.0000000000e+00 +0.0000000000e+00 +1.8445642900e+02 1.8445642900e+02 0.0000000000e+00 0.0000e+00 -1.0000e+00
       -3 -1    0    0    0  501 -0.0000000000e+00 -0.0000000000e+00 -3.4867502779e+02 3.4867502779e+02 0.0000000000e+00 0.0000e+00 1.0000e+00
     -556  1    1    2    0    0 -9.5357789410e+01 +3.8163337987e+01 +4.1214743538e+01 2.2857865922e+02 2.0000000000e+02 0.0000e+00 -1.0000e+00
      556  1    1    2    0    0 +9.5357789410e+01 -3.8163337987e+01 -2.0543334232e+02 3.0455279757e+02 2.0000000000e+02 0.0000e+00 1.0000e+00
<mgrwt>
<rscale>  0 0.50720943E+03</rscale>
<asrwt>0</asrwt>
<pdfrwt beam="1">  1        3 0.28377912E-01 0.50720943E+03</pdfrwt>
<pdfrwt beam="2">  1       -3 0.53642312E-01 0.50720943E+03</pdfrwt>
<totfact> 0.10778462E+02</totfact>
</mgrwt>
</event>
<event>
 4      1 +1.5204000e-02 8.90897000e+02 7.81860800e-03 9.43703300e-02
        1 -1    0    0  501    0 +0.0000000000e+00 +0.0000000000e+00 +5.1670296377e+02 5.1670296377e+02 0.0000000000e+00 0.0000e+00 -1.0000e+00
       -1 -1    0    0    0  501 -0.0000000000e+00 -0.0000000000e+00 -3.8402015049e+02 3.8402015049e+02 0.0000000000e+00 0.0000e+00 1.0000e+00
     -556  1    1    2    0    0 +3.7090084021e+02 -1.3789255371e+02 +2.2942910552e+01 4.4396865518e+02 2.0000000000e+02 0.0000e+00 1.0000e+00
      556  1    1    2    0    0 -3.7090084021e+02 +1.3789255371e+02 +1.0973990273e+02 4.5675445908e+02 2.0000000000e+02 0.0000e+00 -1.0000e+00
<mgrwt>
<rscale>  0 0.89089696E+03</rscale>
<asrwt>0</asrwt>
<pdfrwt beam="1">  1        1 0.79492764E-01 0.89089696E+03</pdfrwt>
<pdfrwt beam="2">  1       -1 0.59080023E-01 0.89089696E+03</pdfrwt>
<totfact> 0.12401109E+02</totfact>
</mgrwt>
</event>
<event>
 4      1 +1.5204000e-02 1.23277700e+03 7.81860800e-03 9.08464100e-02
        2 -1    0    0  501    0 +0.0000000000e+00 +0.0000000000e+00 +2.0395730242e+03 2.0395730242e+03 0.0000000000e+00 0.0000e+00 -1.0000e+00
       -2 -1    0    0    0  501 -0.0000000000e+00 -0.0000000000e+00 -1.8628156075e+02 1.8628156075e+02 0.0000000000e+00 0.0000e+00 1.0000e+00
     -556  1    1    2    0    0 +3.1438258840e+02 -1.6850821418e+02 +1.7593666254e+03 1.8062675197e+03 2.0000000000e+02 0.0000e+00 -1.0000e+00
      556  1    1    2    0    0 -3.1438258840e+02 +1.6850821418e+02 +9.3924838073e+01 4.1958706527e+02 2.0000000000e+02 0.0000e+00 1.0000e+00
<mgrwt>
<rscale>  0 0.12327771E+04</rscale>
<asrwt>0</asrwt>
<pdfrwt beam="1">  1        2 0.31378045E+00 0.12327771E+04</pdfrwt>
<pdfrwt beam="2">  1       -2 0.28658703E-01 0.12327771E+04</pdfrwt>
<totfact> 0.69919056E+01</totfact>
</mgrwt>
</event>
<event>
 4      1 +1.5204000e-02 4.93866200e+02 7.81860800e-03 1.01539200e-01
       -1 -1    0    0    0  501 -0.0000000000e+00 +0.0000000000e+00 +1.4837703784e+02 1.4837703784e+02 0.0000000000e+00 0.0000e+00 1.0000e+00
        1 -1    0    0  501    0 +0.0000000000e+00 -0.0000000000e+00 -4.1095285878e+02 4.1095285878e+02 0.0000000000e+00 0.0000e+00 -1.0000e+00
     -556  1    1    2    0    0 -1.4343241318e+01 +1.3572728139e+02 -1.8617113007e+02 3.0542971885e+02 2.0000000000e+02 0.0000e+00 -1.0000e+00
      556  1    1    2    0    0 +1.4343241318e+01 -1.3572728139e+02 -7.6404690873e+01 2.5390017777e+02 2.0000000000e+02 0.0000e+00 1.0000e+00
<mgrwt>
<rscale>  0 0.49386625E+03</rscale>
<asrwt>0</asrwt>
<pdfrwt beam="2">  1        1 0.63223517E-01 0.49386625E+03</pdfrwt>
<pdfrwt beam="1">  1       -1 0.22827237E-01 0.49386625E+03</pdfrwt>
<totfact> 0.95011678E+02</totfact>
</mgrwt>
</event>
<event>
 4      1 +1.5204000e-02 4.30142400e+02 7.81860800e-03 1.03381500e-01
       -2 -1    0    0    0  501 -0.0000000000e+00 +0.0000000000e+00 +2.4764500951e+01 2.4764500951e+01 0.0000000000e+00 0.0000e+00 1.0000e+00
        2 -1    0    0  501    0 +0.0000000000e+00 -0.0000000000e+00 -1.8678198913e+03 1.8678198913e+03 0.0000000000e+00 0.0000e+00 -1.0000e+00
     -556  1    1    2    0    0 +2.0080085925e+01 +4.6454290951e+01 -1.1889612494e+03 1.2067270046e+03 2.0000000000e+02 0.0000e+00 -1.0000e+00
      556  1    1    2    0    0 -2.0080085925e+01 -4.6454290951e+01 -6.5409414087e+02 6.8585738759e+02 2.0000000000e+02 0.0000e+00 1.0000e+00
<mgrwt>
<rscale>  0 0.43014243E+03</rscale>
<asrwt>0</asrwt>
<pdfrwt beam="2">  1        2 0.28735685E+00 0.43014243E+03</pdfrwt>
<pdfrwt beam="1">  1       -2 0.38099239E-02 0.43014243E+03</pdfrwt>
<totfact> 0.25639877E+03</totfact>
</mgrwt>
</event>
<event>
 4      1 +1.5204000e-02 4.58758100e+02 7.81860800e-03 1.02514200e-01
       -2 -1    0    0    0  501 -0.0000000000e+00 +0.0000000000e+00 +5.2289604169e+01 5.2289604169e+01 0.0000000000e+00 0.0000e+00 1.0000e+00
        2 -1    0    0  501    0 +0.0000000000e+00 -0.0000000000e+00 -1.0062181142e+03 1.0062181142e+03 0.0000000000e+00 0.0000e+00 -1.0000e+00
     -556  1    1    2    0    0 -1.0804102162e+01 -2.2135043824e+01 -2.2412373135e+02 3.0139365578e+02 2.0000000000e+02 0.0000e+00 1.0000e+00
      556  1    1    2    0    0 +1.0804102162e+01 +2.2135043824e+01 -7.2980477871e+02 7.5711406262e+02 2.0000000000e+02 0.0000e+00 -1.0000e+00
<mgrwt>
<rscale>  0 0.45875809E+03</rscale>
<asrwt>0</asrwt>
<pdfrwt beam="2">  1        2 0.15480279E+00 0.45875809E+03</pdfrwt>
<pdfrwt beam="1">  1       -2 0.80445543E-02 0.45875809E+03</pdfrwt>
<totfact> 0.24441337E+03</totfact>
</mgrwt>
</event>
<event>
 4      1 +1.5204000e-02 7.46973800e+02 7.81860800e-03 9.64011000e-02
        1 -1    0    0  501    0 +0.0000000000e+00 +0.0000000000e+00 +2.6803439854e+03 2.6803439854e+03 0.0000000000e+00 0.0000e+00 -1.0000e+00
       -1 -1    0    0    0  501 -0.0000000000e+00 -0.0000000000e+00 -5.2042752359e+01 5.2042752359e+01 0.0000000000e+00 0.0000e+00 1.0000e+00
     -556  1    1    2    0    0 -1.6355413642e+02 +2.1791002142e+02 +7.3280544774e+02 8.0699352984e+02 2.0000000000e+02 0.0000e+00 -1.0000e+00
      556  1    1    2    0    0 +1.6355413642e+02 -2.1791002142e+02 +1.8954957853e+03 1.9253932079e+03 2.0000000000e+02 0.0000e+00 1.0000e+00
<mgrwt>
<rscale>  0 0.74697384E+03</rscale>
<asrwt>0</asrwt>
<pdfrwt beam="1">  1        1 0.41236051E+00 0.74697384E+03</pdfrwt>
<pdfrwt beam="2">  1       -1 0.80065794E-02 0.74697384E+03</pdfrwt>
<totfact> 0.95102160E+01</totfact>
</mgrwt>
</event>
<event>
 4      1 +1.5204000e-02 7.53124800e+02 7.81860800e-03 9.63046100e-02
       -1 -1    0    0    0  501 -0.0000000000e+00 +0.0000000000e+00 +2.7232389262e+02 2.7232389262e+02 0.0000000000e+00 0.0000e+00 1.0000e+00
        1 -1    0    0  501    0 +0.0000000000e+00 -0.0000000000e+00 -5.2070065014e+02 5.2070065014e+02 0.0000000000e+00 0.0000e+00 -1.0000e+00
     -556  1    1    2    0    0 +2.9051945232e+02 -6.9845045781e+01 -6.3706872335e+00 3.5961155189e+02 2.0000000000e+02 0.0000e+00 -1.0000e+00
      556  1    1    2    0    0 -2.9051945232e+02 +6.9845045781e+01 -2.4200607028e+02 4.3341299087e+02 2.0000000000e+02 0.0000e+00 1.0000e+00
<mgrwt>
<rscale>  0 0.75312477E+03</rscale>
<asrwt>0</asrwt>
<pdfrwt beam="2">  1        1 0.80107791E-01 0.75312477E+03</pdfrwt>
<pdfrwt beam="1">  1       -1 0.41895984E-01 0.75312477E+03</pdfrwt>
<totfact> 0.23714060E+02</totfact>
</mgrwt>
</event>
<event>
 4      1 +1.5204000e-02 5.62410100e+02 7.81860800e-03 9.98661600e-02
       -3 -1    0    0    0  501 -0.0000000000e+00 +0.0000000000e+00 +5.4487005844e+02 5.4487005844e+02 0.0000000000e+00 0.0000e+00 1.0000e+00
        3 -1    0    0  501    0 +0.0000000000e+00 -0.0000000000e+00 -1.4512871705e+02 1.4512871705e+02 0.0000000000e+00 0.0000e+00 -1.0000e+00
     -556  1    1    2    0    0 -2.6592720577e+01 +1.2373959498e+01 +4.3970857270e+02 4.8394619181e+02 2.0000000000e+02 0.0000e+00 1.0000e+00
      556  1    1    2    0    0 +2.6592720577e+01 -1.2373959498e+01 -3.9967231320e+01 2.0605258368e+02 2.0000000000e+02 0.0000e+00 -1.0000e+00
<mgrwt>
<rscale>  0 0.56241014E+03</rscale>
<asrwt>0</asrwt>
<pdfrwt beam="2">  1        3 0.22327495E-01 0.56241014E+03</pdfrwt>
<pdfrwt beam="1">  1       -3 0.83826162E-01 0.56241014E+03</pdfrwt>
<totfact> 0.64528099E+01</totfact>
</mgrwt>
</event>
<event>
 4      1 +1.5204000e-02 8.22103300e+02 7.81860800e-03 9.52856300e-02
        2 -1    0    0  501    0 +0.0000000000e+00 +0.0000000000e+00 +2.4471426582e+03 2.4471426582e+03 0.0000000000e+00 0.0000e+00 -1.0000e+00
       -2 -1    0    0    0  501 -0.0000000000e+00 -0.0000000000e+00 -6.9045200289e+01 6.9045200289e+01 0.0000000000e+00 0.0000e+00 1.0000e+00
     -556  1    1    2    0    0 +3.4954495968e+02 -4.4270303434e+01 +9.7651566023e+02 1.0572248452e+03 2.0000000000e+02 0.0000e+00 1.0000e+00
      556  1    1    2    0    0 -3.4954495968e+02 +4.4270303434e+01 +1.4015817977e+03 1.4589630133e+03 2.0000000000e+02 0.0000e+00 -1.0000e+00
<mgrwt>
<rscale>  0 0.82210329E+03</rscale>
<asrwt>0</asrwt>
<pdfrwt beam="1">  1        2 0.37648342E+00 0.82210329E+03</pdfrwt>
<pdfrwt beam="2">  1       -2 0.10622340E-01 0.82210329E+03</pdfrwt>
<totfact> 0.23913277E+02</totfact>
</mgrwt>
</event>
<event>
 4      1 +1.5204000e-02 6.77786200e+02 7.81860800e-03 9.75599300e-02
        4 -1    0    0  501    0 +0.0000000000e+00 +0.0000000000e+00 +9.5645076067e+02 9.5645076067e+02 0.0000000000e+00 0.0000e+00 1.0000e+00
       -4 -1    0    0    0  501 -0.0000000000e+00 -0.0000000000e+00 -1.2007782928e+02 1.2007782928e+02 0.0000000000e+00 0.0000e+00 -1.0000e+00
     -556  1    1    2    0    0 +4.5794801035e+01 +1.0770602793e+02 +8.1095243009e+02 8.4341069244e+02 2.0000000000e+02 0.0000e+00 1.0000e+00
      556  1    1    2    0    0 -4.5794801035e+01 -1.0770602793e+02 +2.5420501298e+01 2.3311789751e+02 2.0000000000e+02 0.0000e+00 -1.0000e+00
<mgrwt>
<rscale>  0 0.67778619E+03</rscale>
<asrwt>0</asrwt>
<pdfrwt beam="1">  1        4 0.14714627E+00 0.67778619E+03</pdfrwt>
<pdfrwt beam="2">  1       -4 0.18473513E-01 0.67778619E+03</pdfrwt>
<totfact> 0.16685860E+01</totfact>
</mgrwt>
</event>
<event>
 4      1 +1.5204000e-02 9.91303400e+02 7.81860800e-03 9.31813500e-02
       -2 -1    0    0    0  501 -0.0000000000e+00 +0.0000000000e+00 +1.9099757386e+02 1.9099757386e+02 0.0000000000e+00 0.0000e+00 1.0000e+00
        2 -1    0    0  501    0 +0.0000000000e+00 -0.0000000000e+00 -1.2862498080e+03 1.2862498080e+03 0.0000000000e+00 0.0000e+00 -1.0000e+00
     -556  1    1    2    0    0 -1.1263571754e+01 -2.6370444922e+02 -1.0971948161e+03 1.1460817462e+03 2.0000000000e+02 0.0000e+00 -1.0000e+00
      556  1    1    2    0    0 +1.1263571754e+01 +2.6370444922e+02 +1.9425819741e+00 3.3116563561e+02 2.0000000000e+02 0.0000e+00 1.0000e+00
<mgrwt>
<rscale>  0 0.99130337E+03</rscale>
<asrwt>0</asrwt>
<pdfrwt beam="2">  1        2 0.19788459E+00 0.99130337E+03</pdfrwt>
<pdfrwt beam="1">  1       -2 0.29384242E-01 0.99130337E+03</pdfrwt>
<totfact> 0.17903048E+02</totfact>
</mgrwt>
</event>
<event>
 4      1 +1.5204000e-02 4.15194300e+02 7.81860800e-03 1.03864200e-01
       -2 -1    0    0    0  501 -0.0000000000e+00 +0.0000000000e+00 +1.8658271361e+01 1.8658271361e+01 0.0000000000e+00 0.0000e+00 1.0000e+00
        2 -1    0    0  501    0 +0.0000000000e+00 -0.0000000000e+00 -2.3097836459e+03 2.3097836459e+03 0.0000000000e+00 0.0000e+00 -1.0000e+00
     -556  1    1    2    0    0 -7.0475020654e+00 +1.0285879203e+01 -8.4142572051e+02 8.6495821271e+02 2.0000000000e+02 0.0000e+00 1.0000e+00
      556  1    1    2    0    0 +7.0475020654e+00 -1.0285879203e+01 -1.4496996540e+03 1.4634837046e+03 2.0000000000e+02 0.0000e+00 -1.0000e+00
<mgrwt>
<rscale>  0 0.41519427E+03</rscale>
<asrwt>0</asrwt>
<pdfrwt beam="2">  1        2 0.35535110E+00 0.41519427E+03</pdfrwt>
<pdfrwt beam="1">  1       -2 0.28705051E-02 0.41519427E+03</pdfrwt>
<totfact> 0.22777757E+03</totfact>
</mgrwt>
</event>
<event>
 4      1 +1.5204000e-02 6.85914400e+02 7.81860800e-03 9.74162800e-02
       -1 -1    0    0    0  501 -0.0000000000e+00 +0.0000000000e+00 +5.0103604450e+02 5.0103604450e+02 0.0000000000e+00 0.0000e+00 1.0000e+00
        1 -1    0    0  501    0 +0.0000000000e+00 -0.0000000000e+00 -2.3475284848e+02 2.3475284848e+02 0.0000000000e+00 0.0000e+00 -1.0000e+00
     -556  1    1    2    0    0 +2.0536186494e+01 -2.3856649730e+02 +2.8591908557e+02 4.2318486750e+02 2.0000000000e+02 0.0000e+00 1.0000e+00
      556  1    1    2    0    0 -2.0536186494e+01 +2.3856649730e+02 -1.9635889556e+01 3.1260402548e+02 2.0000000000e+02 0.0000e+00 -1.0000e+00
<mgrwt>
<rscale>  0 0.68591439E+03</rscale>
<asrwt>0</asrwt>
<pdfrwt beam="2">  1        1 0.36115823E-01 0.68591439E+03</pdfrwt>
<pdfrwt beam="1">  1       -1 0.77082468E-01 0.68591439E+03</pdfrwt>
<totfact> 0.20680812E+02</totfact>
</mgrwt>
</event>
<event>
 4      1 +1.5204000e-02 5.40056200e+02 7.81860800e-03 1.00382200e-01
       -1 -1    0    0    0  501 -0.0000000000e+00 +0.0000000000e+00 +1.1017006062e+02 1.1017006062e+02 0.0000000000e+00 0.0000e+00 1.0000e+00
        1 -1    0    0  501    0 +0.0000000000e+00 -0.0000000000e+00 -6.6184197717e+02 6.6184197717e+02 0.0000000000e+00 0.0000e+00 -1.0000e+00
     -556  1    1    2    0    0 +1.1969116006e+01 -7.1879094182e+01 -5.1334569449e+02 5.5572805037e+02 2.0000000000e+02 0.0000e+00 -1.0000e+00
      556  1    1    2    0    0 -1.1969116006e+01 +7.1879094182e+01 -3.8326222056e+01 2.1628398742e+02 2.0000000000e+02 0.0000e+00 1.0000e+00
<mgrwt>
<rscale>  0 0.54005619E+03</rscale>
<asrwt>0</asrwt>
<pdfrwt beam="2">  1        1 0.10182184E+00 0.54005619E+03</pdfrwt>
<pdfrwt beam="1">  1       -1 0.16949240E-01 0.54005619E+03</pdfrwt>
<totfact> 0.80473864E+02</totfact>
</mgrwt>
</event>
<event>
 4      1 +1.5204000e-02 1.08637400e+03 7.81860800e-03 9.21857600e-02
        2 -1    0    0  501    0 +0.0000000000e+00 +0.0000000000e+00 +2.0839052679e+03 2.0839052679e+03 0.0000000000e+00 0.0000e+00 -1.0000e+00
       -2 -1    0    0    0  501 -0.0000000000e+00 -0.0000000000e+00 -1.4158604022e+02 1.4158604022e+02 0.0000000000e+00 0.0000e+00 1.0000e+00
     -556  1    1    2    0    0 +5.4649246435e+01 +1.1766468477e+02 -2.8693391391e+01 2.4011419968e+02 2.0000000000e+02 0.0000e+00 1.0000e+00
      556  1    1    2    0    0 -5.4649246435e+01 -1.1766468477e+02 +1.9710126191e+03 1.9853771085e+03 2.0000000000e+02 0.0000e+00 -1.0000e+00
<mgrwt>
<rscale>  0 0.10863736E+04</rscale>
<asrwt>0</asrwt>
<pdfrwt beam="1">  1        2 0.32060079E+00 0.10863736E+04</pdfrwt>
<pdfrwt beam="2">  1       -2 0.21782469E-01 0.10863736E+04</pdfrwt>
<totfact> 0.10990150E+02</totfact>
</mgrwt>
</event>
<event>
 4      1 +1.5204000e-02 5.62305800e+02 7.81860800e-03 9.98685100e-02
       -3 -1    0    0    0  501 -0.0000000000e+00 +0.0000000000e+00 +1.6718555169e+02 1.6718555169e+02 0.0000000000e+00 0.0000e+00 1.0000e+00
        3 -1    0    0  501    0 +0.0000000000e+00 -0.0000000000e+00 -4.7280970102e+02 4.7280970102e+02 0.0000000000e+00 0.0000e+00 -1.0000e+00
     -556  1    1    2    0    0 +6.5059867027e+01 +7.6441684413e+01 -3.4653663759e+02 4.1250910124e+02 2.0000000000e+02 0.0000e+00 -1.0000e+00
      556  1    1    2    0    0 -6.5059867027e+01 -7.6441684413e+01 +4.0912488271e+01 2.2748615147e+02 2.0000000000e+02 0.0000e+00 1.0000e+00
<mgrwt>
<rscale>  0 0.56230579E+03</rscale>
<asrwt>0</asrwt>
<pdfrwt beam="2">  1        3 0.72739954E-01 0.56230579E+03</pdfrwt>
<pdfrwt beam="1">  1       -3 0.25720854E-01 0.56230579E+03</pdfrwt>
<totfact> 0.68169123E+01</totfact>
</mgrwt>
</event>
<event>
 4      1 +1.5204000e-02 5.55771200e+02 7.81860800e-03 1.00016700e-01
       -1 -1    0    0    0  501 -0.0000000000e+00 +0.0000000000e+00 +4.3107274550e+02 4.3107274550e+02 0.0000000000e+00 0.0000e+00 -1.0000e+00
        1 -1    0    0  501    0 +0.0000000000e+00 -0.0000000000e+00 -1.7913544761e+02 1.7913544761e+02 0.0000000000e+00 0.0000e+00 1.0000e+00
     -556  1    1    2    0    0 +5.6229061303e+01 +6.2969476358e+01 -6.4497884942e+01 2.2646597857e+02 2.0000000000e+02 0.0000e+00 1.0000e+00
      556  1    1    2    0    0 -5.6229061303e+01 -6.2969476358e+01 +3.1643518283e+02 3.8374221454e+02 2.0000000000e+02 0.0000e+00 -1.0000e+00
<mgrwt>
<rscale>  0 0.55577121E+03</rscale>
<asrwt>0</asrwt>
<pdfrwt beam="2">  1        1 0.27559300E-01 0.55577121E+03</pdfrwt>
<pdfrwt beam="1">  1       -1 0.66318884E-01 0.55577121E+03</pdfrwt>
<totfact> 0.40123956E+02</totfact>
</mgrwt>
</event>
<event>
 4      1 +1.5204000e-02 5.60461600e+02 7.81860800e-03 9.99101100e-02
       -2 -1    0    0    0  501 -0.0000000000e+00 +0.0000000000e+00 +6.0024681974e+01 6.0024681974e+01 0.0000000000e+00 0.0000e+00 1.0000e+00
        2 -1    0    0  501    0 +0.0000000000e+00 -0.0000000000e+00 -1.3082836229e+03 1.3082836229e+03 0.0000000000e+00 0.0000e+00 -1.0000e+00
     -556  1    1    2    0    0 -6.7516311697e+01 -6.1240988207e+01 -1.0485419706e+03 1.0713305629e+03 2.0000000000e+02 0.0000e+00 -1.0000e+00
      556  1    1    2    0    0 +6.7516311697e+01 +6.1240988207e+01 -1.9971697040e+02 2.9697774201e+02 2.0000000000e+02 0.0000e+00 1.0000e+00
<mgrwt>
<rscale>  0 0.56046163E+03</rscale>
<asrwt>0</asrwt>
<pdfrwt beam="2">  1        2 0.20127440E+00 0.56046163E+03</pdfrwt>
<pdfrwt beam="1">  1       -2 0.92345667E-02 0.56046163E+03</pdfrwt>
<totfact> 0.12954695E+03</totfact>
</mgrwt>
</event>
<event>
 4      1 +1.5204000e-02 8.55158900e+02 7.81860800e-03 9.48343900e-02
        1 -1    0    0  501    0 +0.0000000000e+00 +0.0000000000e+00 +2.7052432255e+02 2.7052432255e+02 0.0000000000e+00 0.0000e+00 -1.0000e+00
       -1 -1    0    0    0  501 -0.0000000000e+00 -0.0000000000e+00 -6.7581415226e+02 6.7581415226e+02 0.0000000000e+00 0.0000e+00 1.0000e+00
     -556  1    1    2    0    0 -2.1342698912e+02 -2.0400449233e+02 -4.6371239824e+02 5.8497700883e+02 2.0000000000e+02 0.0000e+00 1.0000e+00
      556  1    1    2    0    0 +2.1342698912e+02 +2.0400449233e+02 +5.8422568534e+01 3.6136146598e+02 2.0000000000e+02 0.0000e+00 -1.0000e+00
<mgrwt>
<rscale>  0 0.85515885E+03</rscale>
<asrwt>0</asrwt>
<pdfrwt beam="1">  1        1 0.41619127E-01 0.85515885E+03</pdfrwt>
<pdfrwt beam="2">  1       -1 0.10397141E+00 0.85515885E+03</pdfrwt>
<totfact> 0.88330463E+01</totfact>
</mgrwt>
</event>
<event>
 4      1 +1.5204000e-02 5.07512300e+02 7.81860800e-03 1.01183600e-01
       -1 -1    0    0    0  501 -0.0000000000e+00 +0.0000000000e+00 +3.5896514905e+01 3.5896514905e+01 0.0000000000e+00 0.0000e+00 1.0000e+00
        1 -1    0    0  501    0 +0.0000000000e+00 -0.0000000000e+00 -1.7938279685e+03 1.7938279685e+03 0.0000000000e+00 0.0000e+00 -1.0000e+00
     -556  1    1    2    0    0 -1.3135056333e+01 -1.4482233267e+01 -1.4376087891e+03 1.4515857864e+03 2.0000000000e+02 0.0000e+00 -1.0000e+00
      556  1    1    2    0    0 +1.3135056333e+01 +1.4482233267e+01 -3.2032266452e+02 3.7813869703e+02 2.0000000000e+02 0.0000e+00 1.0000e+00
<mgrwt>
<rscale>  0 0.50751226E+03</rscale>
<asrwt>0</asrwt>
<pdfrwt beam="2">  1        1 0.27597350E+00 0.50751226E+03</pdfrwt>
<pdfrwt beam="1">  1       -1 0.55225414E-02 0.50751226E+03</pdfrwt>
<totfact> 0.68145999E+02</totfact>
</mgrwt>
</event>
<event>
 4      1 +1.5204000e-02 4.92304000e+02 7.81860800e-03 1.01580700e-01
       -2 -1    0    0    0  501 -0.0000000000e+00 +0.0000000000e+00 +1.9939845044e+02 1.9939845044e+02 0.0000000000e+00 0.0000e+00 1.0000e+00
        2 -1    0    0  501    0 +0.0000000000e+00 -0.0000000000e+00 -3.0386793515e+02 3.0386793515e+02 0.0000000000e+00 0.0000e+00 -1.0000e+00
     -556  1    1    2    0    0 -6.1912466928e+01 +9.1942788982e+01 +4.0921636119e+01 2.3229552365e+02 2.0000000000e+02 0.0000e+00 -1.0000e+00
      556  1    1    2    0    0 +6.1912466928e+01 -9.1942788982e+01 -1.4539112083e+02 2.7097086194e+02 2.0000000000e+02 0.0000e+00 1.0000e+00
<mgrwt>
<rscale>  0 0.49230395E+03</rscale>
<asrwt>0</asrwt>
<pdfrwt beam="2">  1        2 0.46748913E-01 0.49230395E+03</pdfrwt>
<pdfrwt beam="1">  1       -2 0.30676685E-01 0.49230395E+03</pdfrwt>
<totfact> 0.10649718E+03</totfact>
</mgrwt>
</event>
<event>
 4      1 +1.5204000e-02 7.95383400e+02 7.81860800e-03 9.56672400e-02
       -2 -1    0    0    0  501 -0.0000000000e+00 +0.0000000000e+00 +3.9180972087e+02 3.9180972087e+02 0.0000000000e+00 0.0000e+00 1.0000e+00
        2 -1    0    0  501    0 +0.0000000000e+00 -0.0000000000e+00 -4.0366199882e+02 4.0366199882e+02 0.0000000000e+00 0.0000e+00 -1.0000e+00
     -556  1    1    2    0    0 -6.4314070644e+01 +3.3738634357e+02 +7.9624676827e+00 3.9752892398e+02 2.0000000000e+02 0.0000e+00 -1.0000e+00
      556  1    1    2    0    0 +6.4314070644e+01 -3.3738634357e+02 -1.9814745631e+01 3.9794279570e+02 2.0000000000e+02 0.0000e+00 1.0000e+00
<mgrwt>
<rscale>  0 0.79538342E+03</rscale>
<asrwt>0</asrwt>
<pdfrwt beam="2">  1        2 0.62101846E-01 0.79538342E+03</pdfrwt>
<pdfrwt beam="1">  1       -2 0.60278419E-01 0.79538342E+03</pdfrwt>
<totfact> 0.20341890E+02</totfact>
</mgrwt>
</event>
<event>
 4      1 +1.5204000e-02 4.27644400e+02 7.81860800e-03 1.03460700e-01
        1 -1    0    0  501    0 +0.0000000000e+00 +0.0000000000e+00 +1.1848571698e+02 1.1848571698e+02 0.0000000000e+00 0.0000e+00 -1.0000e+00
       -1 -1    0    0    0  501 -0.0000000000e+00 -0.0000000000e+00 -3.8586872927e+02 3.8586872927e+02 0.0000000000e+00 0.0000e+00 1.0000e+00
     -556  1    1    2    0    0 +2.9062103104e+01 -6.4400428620e+01 -1.0187206800e+02 2.3530817938e+02 2.0000000000e+02 0.0000e+00 -1.0000e+00
      556  1    1    2    0    0 -2.9062103104e+01 +6.4400428620e+01 -1.6551094428e+02 2.6904626688e+02 2.0000000000e+02 0.0000e+00 1.0000e+00
<mgrwt>
<rscale>  0 0.42764440E+03</rscale>
<asrwt>0</asrwt>
<pdfrwt beam="1">  1        1 0.18228572E-01 0.42764440E+03</pdfrwt>
<pdfrwt beam="2">  1       -1 0.59364420E-01 0.42764440E+03</pdfrwt>
<totfact> 0.85806301E+02</totfact>
</mgrwt>
</event>
<event>
 4      1 +1.5204000e-02 7.27170000e+02 7.81860800e-03 9.67186400e-02
        2 -1    0    0  501    0 +0.0000000000e+00 +0.0000000000e+00 +5.7434890221e+02 5.7434890221e+02 0.0000000000e+00 0.0000e+00 -1.0000e+00
       -2 -1    0    0    0  501 -0.0000000000e+00 -0.0000000000e+00 -2.3016330050e+02 2.3016330050e+02 0.0000000000e+00 0.0000e+00 1.0000e+00
     -556  1    1    2    0    0 -2.9588468967e+01 -2.7051278527e+02 +3.2110850444e+02 4.6600784984e+02 2.0000000000e+02 0.0000e+00 -1.0000e+00
      556  1    1    2    0    0 +2.9588468967e+01 +2.7051278527e+02 +2.3077097271e+01 3.3850435287e+02 2.0000000000e+02 0.0000e+00 1.0000e+00
<mgrwt>
<rscale>  0 0.72716996E+03</rscale>
<asrwt>0</asrwt>
<pdfrwt beam="1">  1        2 0.88361369E-01 0.72716996E+03</pdfrwt>
<pdfrwt beam="2">  1       -2 0.35409739E-01 0.72716996E+03</pdfrwt>
<totfact> 0.39432552E+02</totfact>
</mgrwt>
</event>
<event>
 4      1 +1.5204000e-02 7.12336400e+02 7.81860800e-03 9.69636500e-02
        1 -1    0    0  501    0 +0.0000000000e+00 +0.0000000000e+00 +7.5878352005e+02 7.5878352005e+02 0.0000000000e+00 0.0000e+00 -1.0000e+00
       -1 -1    0    0    0  501 -0.0000000000e+00 -0.0000000000e+00 -1.6718311195e+02 1.6718311195e+02 0.0000000000e+00 0.0000e+00 1.0000e+00
     -556  1    1    2    0    0 -2.5869558625e+02 -1.1520849518e+02 +1.8972172027e+02 3.9520973526e+02 2.0000000000e+02 0.0000e+00 -1.0000e+00
      556  1    1    2    0    0 +2.5869558625e+02 +1.1520849518e+02 +4.0187868784e+02 5.3075689674e+02 2.0000000000e+02 0.0000e+00 1.0000e+00
<mgrwt>
<rscale>  0 0.71233641E+03</rscale>
<asrwt>0</asrwt>
<pdfrwt beam="1">  1        1 0.11673592E+00 0.71233641E+03</pdfrwt>
<pdfrwt beam="2">  1       -1 0.25720479E-01 0.71233641E+03</pdfrwt>
<totfact> 0.32432279E+02</totfact>
</mgrwt>
</event>
<event>
 4      1 +1.5204000e-02 5.87091700e+02 7.81860800e-03 9.93255400e-02
       -2 -1    0    0    0  501 -0.0000000000e+00 +0.0000000000e+00 +1.1600197195e+02 1.1600197195e+02 0.0000000000e+00 0.0000e+00 -1.0000e+00
        2 -1    0    0  501    0 +0.0000000000e+00 -0.0000000000e+00 -7.4282513348e+02 7.4282513348e+02 0.0000000000e+00 0.0000e+00 1.0000e+00
     -556  1    1    2    0    0 +8.3650144364e+01 +1.3492943517e+02 -1.0159676896e+02 2.7481849026e+02 2.0000000000e+02 0.0000e+00 1.0000e+00
      556  1    1    2    0    0 -8.3650144364e+01 -1.3492943517e+02 -5.2522639258e+02 5.8400861516e+02 2.0000000000e+02 0.0000e+00 -1.0000e+00
<mgrwt>
<rscale>  0 0.58709175E+03</rscale>
<asrwt>0</asrwt>
<pdfrwt beam="2">  1        2 0.11428079E+00 0.58709175E+03</pdfrwt>
<pdfrwt beam="1">  1       -2 0.17846457E-01 0.58709175E+03</pdfrwt>
<totfact> 0.99287430E+02</totfact>
</mgrwt>
</event>
<event>
 4      1 +1.5204000e-02 5.24684600e+02 7.81860800e-03 1.00752900e-01
       -1 -1    0    0    0  501 -0.0000000000e+00 +0.0000000000e+00 +5.6047344903e+01 5.6047344903e+01 0.0000000000e+00 0.0000e+00 1.0000e+00
        1 -1    0    0  501    0 +0.0000000000e+00 -0.0000000000e+00 -1.2279527129e+03 1.2279527129e+03 0.0000000000e+00 0.0000e+00 -1.0000e+00
     -556  1    1    2    0    0 +1.0788131535e+02 +1.8833608613e+01 -9.0343095268e+02 9.3176207761e+02 2.0000000000e+02 0.0000e+00 -1.0000e+00
      556  1    1    2    0    0 -1.0788131535e+02 -1.8833608613e+01 -2.6847441535e+02 3.5223798022e+02 2.0000000000e+02 0.0000e+00 1.0000e+00
<mgrwt>
<rscale>  0 0.52468463E+03</rscale>
<asrwt>0</asrwt>
<pdfrwt beam="2">  1        1 0.18891579E+00 0.52468463E+03</pdfrwt>
<pdfrwt beam="1">  1       -1 0.86226688E-02 0.52468463E+03</pdfrwt>
<totfact> 0.82972165E+02</totfact>
</mgrwt>
</event>
<event>
 4      1 +1.5204000e-02 1.32787400e+03 7.81860800e-03 9.00774800e-02
        2 -1    0    0  501    0 +0.0000000000e+00 +0.0000000000e+00 +9.2677290838e+02 9.2677290838e+02 0.0000000000e+00 0.0000e+00 -1.0000e+00
       -2 -1    0    0    0  501 -0.0000000000e+00 -0.0000000000e+00 -4.7564211751e+02 4.7564211751e+02 0.0000000000e+00 0.0000e+00 1.0000e+00
     -556  1    1    2    0    0 -2.6266372496e+02 +1.8476860442e+02 +8.0179422118e+02 8.8656959270e+02 2.0000000000e+02 0.0000e+00 -1.0000e+00
      556  1    1    2    0    0 +2.6266372496e+02 -1.8476860442e+02 -3.5066343030e+02 5.1584543319e+02 2.0000000000e+02 0.0000e+00 1.0000e+00
<mgrwt>
<rscale>  0 0.13278738E+04</rscale>
<asrwt>0</asrwt>
<pdfrwt beam="1">  1        2 0.14258045E+00 0.13278738E+04</pdfrwt>
<pdfrwt beam="2">  1       -2 0.73175711E-01 0.13278738E+04</pdfrwt>
<totfact> 0.46420446E+01</totfact>
</mgrwt>
</event>
<event>
 4      1 +1.5204000e-02 1.20810700e+03 7.81860800e-03 9.10579000e-02
       -2 -1    0    0    0  501 -0.0000000000e+00 +0.0000000000e+00 +1.4701541153e+02 1.4701541153e+02 0.0000000000e+00 0.0000e+00 1.0000e+00
        2 -1    0    0  501    0 +0.0000000000e+00 -0.0000000000e+00 -2.4819208014e+03 2.4819208014e+03 0.0000000000e+00 0.0000e+00 -1.0000e+00
     -556  1    1    2    0    0 -1.3211721519e+02 -3.0879452423e+01 -2.3721283670e+03 2.3844079954e+03 2.0000000000e+02 0.0000e+00 -1.0000e+00
      556  1    1    2    0    0 +1.3211721519e+02 +3.0879452423e+01 +3.7222977121e+01 2.4452821751e+02 2.0000000000e+02 0.0000e+00 1.0000e+00
<mgrwt>
<rscale>  0 0.12081070E+04</rscale>
<asrwt>0</asrwt>
<pdfrwt beam="2">  1        2 0.38183396E+00 0.12081070E+04</pdfrwt>
<pdfrwt beam="1">  1       -2 0.22617756E-01 0.12081070E+04</pdfrwt>
<totfact> 0.60801393E+01</totfact>
</mgrwt>
</event>
<event>
 4      1 +1.5204000e-02 1.18457700e+03 7.81860800e-03 9.12646400e-02
        1 -1    0    0  501    0 +0.0000000000e+00 +0.0000000000e+00 +6.7673895997e+02 6.7673895997e+02 0.0000000000e+00 0.0000e+00 -1.0000e+00
       -1 -1    0    0    0  501 -0.0000000000e+00 -0.0000000000e+00 -5.1837690019e+02 5.1837690019e+02 0.0000000000e+00 0.0000e+00 1.0000e+00
     -556  1    1    2    0    0 -2.6930742431e+02 -4.3680814264e+02 -1.4065193720e+02 5.6842836813e+02 2.0000000000e+02 0.0000e+00 -1.0000e+00
      556  1    1    2    0    0 +2.6930742431e+02 +4.3680814264e+02 +2.9901399698e+02 6.2668749202e+02 2.0000000000e+02 0.0000e+00 1.0000e+00
<mgrwt>
<rscale>  0 0.11845773E+04</rscale>
<asrwt>0</asrwt>
<pdfrwt beam="1">  1        1 0.10411369E+00 0.11845773E+04</pdfrwt>
<pdfrwt beam="2">  1       -1 0.79750292E-01 0.11845773E+04</pdfrwt>
<totfact> 0.44636739E+01</totfact>
</mgrwt>
</event>
<event>
 4      1 +1.5204000e-02 7.40560200e+02 7.81860800e-03 9.65027700e-02
       -2 -1    0    0    0  501 -0.0000000000e+00 +0.0000000000e+00 +1.9403319762e+02 1.9403319762e+02 0.0000000000e+00 0.0000e+00 1.0000e+00
        2 -1    0    0  501    0 +0.0000000000e+00 -0.0000000000e+00 -7.0661798354e+02 7.0661798354e+02 0.0000000000e+00 0.0000e+00 -1.0000e+00
     -556  1    1    2    0    0 +2.3670297943e+02 -1.2965242855e+02 -6.6829206799e+01 3.4249700084e+02 2.0000000000e+02 0.0000e+00 1.0000e+00
      556  1    1    2    0    0 -2.3670297943e+02 +1.2965242855e+02 -4.4575557912e+02 5.5815418033e+02 2.0000000000e+02 0.0000e+00 -1.0000e+00
<mgrwt>
<rscale>  0 0.74056018E+03</rscale>
<asrwt>0</asrwt>
<pdfrwt beam="2">  1        2 0.10871046E+00 0.74056018E+03</pdfrwt>
<pdfrwt beam="1">  1       -2 0.29851261E-01 0.74056018E+03</pdfrwt>
<totfact> 0.42134049E+02</totfact>
</mgrwt>
</event>
<event>
 4      1 +1.5204000e-02 8.53045100e+02 7.81860800e-03 9.48625900e-02
       -2 -1    0    0    0  501 -0.0000000000e+00 +0.0000000000e+00 +1.1204999532e+02 1.1204999532e+02 0.0000000000e+00 0.0000e+00 1.0000e+00
        2 -1    0    0  501    0 +0.0000000000e+00 -0.0000000000e+00 -1.6235741115e+03 1.6235741115e+03 0.0000000000e+00 0.0000e+00 -1.0000e+00
     -556  1    1    2    0    0 +5.8726046785e+01 -2.0679082323e+01 -1.5117140110e+03 1.5261571426e+03 2.0000000000e+02 0.0000e+00 -1.0000e+00
      556  1    1    2    0    0 -5.8726046785e+01 +2.0679082323e+01 +1.8989481675e-01 2.0946696417e+02 2.0000000000e+02 0.0000e+00 1.0000e+00
<mgrwt>
<rscale>  0 0.85304507E+03</rscale>
<asrwt>0</asrwt>
<pdfrwt beam="2">  1        2 0.24978063E+00 0.85304507E+03</pdfrwt>
<pdfrwt beam="1">  1       -2 0.17238461E-01 0.85304507E+03</pdfrwt>
<totfact> 0.30146152E+02</totfact>
</mgrwt>
</event>
<event>
 4      1 +1.5204000e-02 9.71159300e+02 7.81860800e-03 9.34075500e-02
       -2 -1    0    0    0  501 -0.0000000000e+00 +0.0000000000e+00 +1.0474189305e+02 1.0474189305e+02 0.0000000000e+00 0.0000e+00 1.0000e+00
        2 -1    0    0  501    0 +0.0000000000e+00 -0.0000000000e+00 -2.2511299444e+03 2.2511299444e+03 0.0000000000e+00 0.0000e+00 -1.0000e+00
     -556  1    1    2    0    0 +1.8687104240e+02 +3.2838097400e+02 -1.6318356519e+03 1.6869032116e+03 2.0000000000e+02 0.0000e+00 1.0000e+00
      556  1    1    2    0    0 -1.8687104240e+02 -3.2838097400e+02 -5.1455239946e+02 6.6896862584e+02 2.0000000000e+02 0.0000e+00 -1.0000e+00
<mgrwt>
<rscale>  0 0.97115933E+03</rscale>
<asrwt>0</asrwt>
<pdfrwt beam="2">  1        2 0.34632766E+00 0.97115933E+03</pdfrwt>
<pdfrwt beam="1">  1       -2 0.16114139E-01 0.97115933E+03</pdfrwt>
<totfact> 0.15146388E+02</totfact>
</mgrwt>
</event>
<event>
 4      1 +1.5204000e-02 4.37685000e+02 7.81860800e-03 1.03145900e-01
        1 -1    0    0  501    0 +0.0000000000e+00 +0.0000000000e+00 +2.3974001516e+02 2.3974001516e+02 0.0000000000e+00 0.0000e+00 -1.0000e+00
       -1 -1    0    0    0  501 -0.0000000000e+00 -0.0000000000e+00 -1.9976661119e+02 1.9976661119e+02 0.0000000000e+00 0.0000e+00 1.0000e+00
     -556  1    1    2    0    0 -7.2369528049e+01 +3.4345347741e+01 +5.8553562317e+01 2.2326099337e+02 2.0000000000e+02 0.0000e+00 1.0000e+00
      556  1    1    2    0    0 +7.2369528049e+01 -3.4345347741e+01 -1.8580158346e+01 2.1624563299e+02 2.0000000000e+02 0.0000e+00 -1.0000e+00
<mgrwt>
<rscale>  0 0.43768505E+03</rscale>
<asrwt>0</asrwt>
<pdfrwt beam="1">  1        1 0.36883079E-01 0.43768505E+03</pdfrwt>
<pdfrwt beam="2">  1       -1 0.30733325E-01 0.43768505E+03</pdfrwt>
<totfact> 0.11470079E+03</totfact>
</mgrwt>
</event>
<event>
 4      1 +1.5204000e-02 5.59059800e+02 7.81860800e-03 9.99418400e-02
       -1 -1    0    0    0  501 -0.0000000000e+00 +0.0000000000e+00 +6.6799691328e+01 6.6799691328e+01 0.0000000000e+00 0.0000e+00 1.0000e+00
        1 -1    0    0  501    0 +0.0000000000e+00 -0.0000000000e+00 -1.1697203350e+03 1.1697203350e+03 0.0000000000e+00 0.0000e+00 -1.0000e+00
     -556  1    1    2    0    0 -1.5233118058e+01 +1.1855008296e+02 -8.9304176602e+02 9.2293540722e+02 2.0000000000e+02 0.0000e+00 -1.0000e+00
      556  1    1    2    0    0 +1.5233118058e+01 -1.1855008296e+02 -2.0987887766e+02 3.1358461911e+02 2.0000000000e+02 0.0000e+00 1.0000e+00
<mgrwt>
<rscale>  0 0.55905977E+03</rscale>
<asrwt>0</asrwt>
<pdfrwt beam="2">  1        1 0.17995699E+00 0.55905977E+03</pdfrwt>
<pdfrwt beam="1">  1       -1 0.10276875E-01 0.55905977E+03</pdfrwt>
<totfact> 0.69249180E+02</totfact>
</mgrwt>
</event>
<event>
 4      1 +1.5204000e-02 8.80459700e+02 7.81860800e-03 9.45034300e-02
        2 -1    0    0  501    0 +0.0000000000e+00 +0.0000000000e+00 +4.8136142545e+02 4.8136142545e+02 0.0000000000e+00 0.0000e+00 -1.0000e+00
       -2 -1    0    0    0  501 -0.0000000000e+00 -0.0000000000e+00 -4.0261288776e+02 4.0261288776e+02 0.0000000000e+00 0.0000e+00 1.0000e+00
     -556  1    1    2    0    0 -2.7577742027e+02 -2.5004785536e+02 -8.4508711904e+01 4.3095108527e+02 2.0000000000e+02 0.0000e+00 1.0000e+00
      556  1    1    2    0    0 +2.7577742027e+02 +2.5004785536e+02 +1.6325724959e+02 4.5302322794e+02 2.0000000000e+02 0.0000e+00 -1.0000e+00
<mgrwt>
<rscale>  0 0.88045968E+03</rscale>
<asrwt>0</asrwt>
<pdfrwt beam="1">  1        2 0.74055603E-01 0.88045968E+03</pdfrwt>
<pdfrwt beam="2">  1       -2 0.61940445E-01 0.88045968E+03</pdfrwt>
<totfact> 0.15652950E+02</totfact>
</mgrwt>
</event>
<event>
 4      1 +1.5204000e-02 7.67029600e+02 7.81860800e-03 9.60900600e-02
       -3 -1    0    0    0  501 -0.0000000000e+00 +0.0000000000e+00 +1.4856473544e+03 1.4856473544e+03 0.0000000000e+00 0.0000e+00 1.0000e+00
        3 -1    0    0  501    0 +0.0000000000e+00 -0.0000000000e+00 -9.9003029243e+01 9.9003029243e+01 0.0000000000e+00 0.0000e+00 -1.0000e+00
     -556  1    1    2    0    0 +2.3436380523e+02 +5.6295246185e+01 +2.3605881635e+02 3.9219805293e+02 2.0000000000e+02 0.0000e+00 -1.0000e+00
      556  1    1    2    0    0 -2.3436380523e+02 -5.6295246185e+01 +1.1505855088e+03 1.1924523307e+03 2.0000000000e+02 0.0000e+00 1.0000e+00
<mgrwt>
<rscale>  0 0.76702957E+03</rscale>
<asrwt>0</asrwt>
<pdfrwt beam="2">  1        3 0.15231236E-01 0.76702957E+03</pdfrwt>
<pdfrwt beam="1">  1       -3 0.22856112E+00 0.76702957E+03</pdfrwt>
<totfact> 0.97220757E+00</totfact>
</mgrwt>
</event>
<event>
 4      1 +1.5204000e-02 7.70158500e+02 7.81860800e-03 9.60424500e-02
       -2 -1    0    0    0  501 -0.0000000000e+00 +0.0000000000e+00 +9.9643935892e+01 9.9643935892e+01 0.0000000000e+00 0.0000e+00 1.0000e+00
        2 -1    0    0  501    0 +0.0000000000e+00 -0.0000000000e+00 -1.4881590123e+03 1.4881590123e+03 0.0000000000e+00 0.0000e+00 -1.0000e+00
     -556  1    1    2    0    0 -1.4726873567e+02 -8.5156598389e+01 -1.2749949798e+03 1.3017495631e+03 2.0000000000e+02 0.0000e+00 -1.0000e+00
      556  1    1    2    0    0 +1.4726873567e+02 +8.5156598389e+01 -1.1352009666e+02 2.8605338505e+02 2.0000000000e+02 0.0000e+00 1.0000e+00
<mgrwt>
<rscale>  0 0.77015848E+03</rscale>
<asrwt>0</asrwt>
<pdfrwt beam="2">  1        2 0.22894751E+00 0.77015848E+03</pdfrwt>
<pdfrwt beam="1">  1       -2 0.15329838E-01 0.77015848E+03</pdfrwt>
<totfact> 0.44014613E+02</totfact>
</mgrwt>
</event>
<event>
 4      1 +1.5204000e-02 6.53789600e+02 7.81860800e-03 9.79969400e-02
        1 -1    0    0  501    0 +0.0000000000e+00 +0.0000000000e+00 +1.9516297305e+03 1.9516297305e+03 0.0000000000e+00 0.0000e+00 -1.0000e+00
       -1 -1    0    0    0  501 -0.0000000000e+00 -0.0000000000e+00 -5.4754353304e+01 5.4754353304e+01 0.0000000000e+00 0.0000e+00 1.0000e+00
     -556  1    1    2    0    0 +1.2350080971e+02 -2.0098231019e+02 +6.2345959752e+02 6.9595129768e+02 2.0000000000e+02 0.0000e+00 1.0000e+00
      556  1    1    2    0    0 -1.2350080971e+02 +2.0098231019e+02 +1.2734157797e+03 1.3104327862e+03 2.0000000000e+02 0.0000e+00 -1.0000e+00
<mgrwt>
<rscale>  0 0.65378964E+03</rscale>
<asrwt>0</asrwt>
<pdfrwt beam="1">  1        1 0.30025067E+00 0.65378964E+03</pdfrwt>
<pdfrwt beam="2">  1       -1 0.84237482E-02 0.65378964E+03</pdfrwt>
<totfact> 0.27537369E+02</totfact>
</mgrwt>
</event>
<event>
 4      1 +1.5204000e-02 4.56173300e+02 7.81860800e-03 1.02589700e-01
        1 -1    0    0  501    0 +0.0000000000e+00 +0.0000000000e+00 +5.5967986968e+02 5.5967986968e+02 0.0000000000e+00 0.0000e+00 -1.0000e+00
       -1 -1    0    0    0  501 -0.0000000000e+00 -0.0000000000e+00 -9.2952287024e+01 9.2952287024e+01 0.0000000000e+00 0.0000e+00 1.0000e+00
     -556  1    1    2    0    0 -9.7299493448e+01 -4.1742432575e+01 +1.9254834119e+02 2.9712705329e+02 2.0000000000e+02 0.0000e+00 1.0000e+00
      556  1    1    2    0    0 +9.7299493448e+01 +4.1742432575e+01 +2.7417924146e+02 3.5550510341e+02 2.0000000000e+02 0.0000e+00 -1.0000e+00
<mgrwt>
<rscale>  0 0.45617332E+03</rscale>
<asrwt>0</asrwt>
<pdfrwt beam="1">  1        1 0.86104593E-01 0.45617332E+03</pdfrwt>
<pdfrwt beam="2">  1       -1 0.14300352E-01 0.45617332E+03</pdfrwt>
<totfact> 0.13473661E+03</totfact>
</mgrwt>
</event>
<event>
 4      1 +1.5204000e-02 1.00907500e+03 7.81860800e-03 9.29864800e-02
       -1 -1    0    0    0  501 -0.0000000000e+00 +0.0000000000e+00 +4.1218094722e+02 4.1218094722e+02 0.0000000000e+00 0.0000e+00 1.0000e+00
        1 -1    0    0  501    0 +0.0000000000e+00 -0.0000000000e+00 -6.1758764614e+02 6.1758764614e+02 0.0000000000e+00 0.0000e+00 -1.0000e+00
     -556  1    1    2    0    0 -4.4371057687e+02 +1.2053756798e+02 -4.5432213934e+01 5.0346049238e+02 2.0000000000e+02 0.0000e+00 1.0000e+00
      556  1    1    2    0    0 +4.4371057687e+02 -1.2053756798e+02 -1.5997448499e+02 5.2630810099e+02 2.0000000000e+02 0.0000e+00 -1.0000e+00
<mgrwt>
<rscale>  0 0.10090745E+04</rscale>
<asrwt>0</asrwt>
<pdfrwt beam="2">  1        1 0.95013484E-01 0.10090745E+04</pdfrwt>
<pdfrwt beam="1">  1       -1 0.63412454E-01 0.10090745E+04</pdfrwt>
<totfact> 0.83022898E+01</totfact>
</mgrwt>
</event>
<event>
 4      1 +1.5204000e-02 5.85414600e+02 7.81860800e-03 9.93613700e-02
        1 -1    0    0  501    0 +0.0000000000e+00 +0.0000000000e+00 +7.8016951160e+02 7.8016951160e+02 0.0000000000e+00 0.0000e+00 -1.0000e+00
       -1 -1    0    0    0  501 -0.0000000000e+00 -0.0000000000e+00 -1.0981918210e+02 1.0981918210e+02 0.0000000000e+00 0.0000e+00 1.0000e+00
     -556  1    1    2    0    0 +2.7463471725e+01 +1.8986602493e+02 +1.9196092742e+02 3.3712363809e+02 2.0000000000e+02 0.0000e+00 1.0000e+00
      556  1    1    2    0    0 -2.7463471725e+01 -1.8986602493e+02 +4.7838940208e+02 5.5286505562e+02 2.0000000000e+02 0.0000e+00 -1.0000e+00
<mgrwt>
<rscale>  0 0.58541465E+03</rscale>
<asrwt>0</asrwt>
<pdfrwt beam="1">  1        1 0.12002608E+00 0.58541465E+03</pdfrwt>
<pdfrwt beam="2">  1       -1 0.16895259E-01 0.58541465E+03</pdfrwt>
<totfact> 0.62968455E+02</totfact>
</mgrwt>
</event>
<event>
 4      1 +1.5204000e-02 6.00450200e+02 7.81860800e-03 9.90447200e-02
        2 -1    0    0  501    0 +0.0000000000e+00 +0.0000000000e+00 +3.0527770120e+02 3.0527770120e+02 0.0000000000e+00 0.0000e+00 -1.0000e+00
       -2 -1    0    0    0  501 -0.0000000000e+00 -0.0000000000e+00 -2.9525614209e+02 2.9525614209e+02 0.0000000000e+00 0.0000e+00 1.0000e+00
     -556  1    1    2    0    0 +1.4585888493e+02 -3.2195908111e+01 +1.7183846325e+02 3.0305090045e+02 2.0000000000e+02 0.0000e+00 -1.0000e+00
      556  1    1    2    0    0 -1.4585888493e+02 +3.2195908111e+01 -1.6181690414e+02 2.9748294283e+02 2.0000000000e+02 0.0000e+00 1.0000e+00
<mgrwt>
<rscale>  0 0.60045022E+03</rscale>
<asrwt>0</asrwt>
<pdfrwt beam="1">  1        2 0.46965800E-01 0.60045022E+03</pdfrwt>
<pdfrwt beam="2">  1       -2 0.45424022E-01 0.60045022E+03</pdfrwt>
<totfact> 0.49900357E+02</totfact>
</mgrwt>
</event>
<event>
 4      1 +1.5204000e-02 6.93536100e+02 7.81860800e-03 9.72835100e-02
        1 -1    0    0  501    0 +0.0000000000e+00 +0.0000000000e+00 +8.2531402379e+02 8.2531402379e+02 0.0000000000e+00 0.0000e+00 -1.0000e+00
       -1 -1    0    0    0  501 -0.0000000000e+00 -0.0000000000e+00 -1.4569981116e+02 1.4569981116e+02 0.0000000000e+00 0.0000e+00 1.0000e+00
     -556  1    1    2    0    0 -9.6377735541e+01 +2.3079421241e+02 +1.5357150218e+02 3.5516030560e+02 2.0000000000e+02 0.0000e+00 1.0000e+00
      556  1    1    2    0    0 +9.6377735541e+01 -2.3079421241e+02 +5.2604271046e+02 6.1585352935e+02 2.0000000000e+02 0.0000e+00 -1.0000e+00
<mgrwt>
<rscale>  0 0.69353615E+03</rscale>
<asrwt>0</asrwt>
<pdfrwt beam="1">  1        1 0.12697139E+00 0.69353615E+03</pdfrwt>
<pdfrwt beam="2">  1       -1 0.22415356E-01 0.69353615E+03</pdfrwt>
<totfact> 0.35874025E+02</totfact>
</mgrwt>
</event>
<event>
 4      1 +1.5204000e-02 4.83410300e+02 7.81860800e-03 1.01820200e-01
       -1 -1    0    0    0  501 -0.0000000000e+00 +0.0000000000e+00 +3.6251802215e+02 3.6251802215e+02 0.0000000000e+00 0.0000e+00 1.0000e+00
        1 -1    0    0  501    0 +0.0000000000e+00 -0.0000000000e+00 -1.6115439566e+02 1.6115439566e+02 0.0000000000e+00 0.0000e+00 -1.0000e+00
     -556  1    1    2    0    0 +7.1994695494e+01 +8.8758913874e+00 +2.2495033419e+02 3.0962020360e+02 2.0000000000e+02 0.0000e+00 1.0000e+00
      556  1    1    2    0    0 -7.1994695494e+01 -8.8758913874e+00 -2.3586707702e+01 2.1405221421e+02 2.0000000000e+02 0.0000e+00 -1.0000e+00
<mgrwt>
<rscale>  0 0.48341027E+03</rscale>
<asrwt>0</asrwt>
<pdfrwt beam="2">  1        1 0.24792984E-01 0.48341027E+03</pdfrwt>
<pdfrwt beam="1">  1       -1 0.55772003E-01 0.48341027E+03</pdfrwt>
<totfact> 0.64756135E+02</totfact>
</mgrwt>
</event>
<event>
 4      1 +1.5204000e-02 5.13912000e+02 7.81860800e-03 1.01021000e-01
        3 -1    0    0  501    0 +0.0000000000e+00 +0.0000000000e+00 +4.3511608527e+01 4.3511608527e+01 0.0000000000e+00 0.0000e+00 -1.0000e+00
       -3 -1    0    0    0  501 -0.0000000000e+00 -0.0000000000e+00 -1.5174428378e+03 1.5174428378e+03 0.0000000000e+00 0.0000e+00 1.0000e+00
     -556  1    1    2    0    0 -1.0882612940e+02 +8.9062247669e+01 -9.7711533797e+02 1.0072385984e+03 2.0000000000e+02 0.0000e+00 1.0000e+00
      556  1    1    2    0    0 +1.0882612940e+02 -8.9062247669e+01 -4.9681589131e+02 5.5371584794e+02 2.0000000000e+02 0.0000e+00 -1.0000e+00
<mgrwt>
<rscale>  0 0.51391197E+03</rscale>
<asrwt>0</asrwt>
<pdfrwt beam="1">  1        3 0.66940947E-02 0.51391197E+03</pdfrwt>
<pdfrwt beam="2">  1       -3 0.23345271E+00 0.51391197E+03</pdfrwt>
<totfact> 0.36856647E+01</totfact>
</mgrwt>
</event>
<event>
 4      1 +1.5204000e-02 4.63941000e+02 7.81860800e-03 1.02364400e-01
        1 -1    0    0  501    0 +0.0000000000e+00 +0.0000000000e+00 +1.9461120846e+03 1.9461120846e+03 0.0000000000e+00 0.0000e+00 -1.0000e+00
       -1 -1    0    0    0  501 -0.0000000000e+00 -0.0000000000e+00 -2.7650155695e+01 2.7650155695e+01 0.0000000000e+00 0.0000e+00 1.0000e+00
     -556  1    1    2    0    0 +2.2490409205e+01 -1.0915682570e+02 +8.0065928855e+02 8.3275226054e+02 2.0000000000e+02 0.0000e+00 1.0000e+00
      556  1    1    2    0    0 -2.2490409205e+01 +1.0915682570e+02 +1.1178026404e+03 1.1410099798e+03 2.0000000000e+02 0.0000e+00 -1.0000e+00
<mgrwt>
<rscale>  0 0.46394095E+03</rscale>
<asrwt>0</asrwt>
<pdfrwt beam="1">  1        1 0.29940175E+00 0.46394095E+03</pdfrwt>
<pdfrwt beam="2">  1       -1 0.42538716E-02 0.46394095E+03</pdfrwt>
<totfact> 0.80640571E+02</totfact>
</mgrwt>
</event>
<event>
 4      1 +1.5204000e-02 6.33837000e+02 7.81860800e-03 9.83759000e-02
       -1 -1    0    0    0  501 -0.0000000000e+00 +0.0000000000e+00 +2.0716775389e+02 2.0716775389e+02 0.0000000000e+00 0.0000e+00 1.0000e+00
        1 -1    0    0  501    0 +0.0000000000e+00 -0.0000000000e+00 -4.8481168005e+02 4.8481168005e+02 0.0000000000e+00 0.0000e+00 -1.0000e+00
     -556  1    1    2    0    0 -1.4000447042e+02 -7.9144515867e+01 +6.4170231825e+01 2.6454286001e+02 2.0000000000e+02 0.0000e+00 1.0000e+00
      556  1    1    2    0    0 +1.4000447042e+02 +7.9144515867e+01 -3.4181415799e+02 4.2743657393e+02 2.0000000000e+02 0.0000e+00 -1.0000e+00
<mgrwt>
<rscale>  0 0.63383704E+03</rscale>
<asrwt>0</asrwt>
<pdfrwt beam="2">  1        1 0.74586412E-01 0.63383704E+03</pdfrwt>
<pdfrwt beam="1">  1       -1 0.31871962E-01 0.63383704E+03</pdfrwt>
<totfact> 0.42893031E+02</totfact>
</mgrwt>
</event>
<event>
 4      1 +1.5204000e-02 6.90951800e+02 7.81860800e-03 9.73283200e-02
       -2 -1    0    0    0  501 -0.0000000000e+00 +0.0000000000e+00 +6.1092791922e+02 6.1092791922e+02 0.0000000000e+00 0.0000e+00 1.0000e+00
        2 -1    0    0  501    0 +0.0000000000e+00 -0.0000000000e+00 -1.9536443949e+02 1.9536443949e+02 0.0000000000e+00 0.0000e+00 -1.0000e+00
     -556  1    1    2    0    0 -2.5775266532e+02 -3.5233102641e-01 +3.4040696569e+02 4.7150128622e+02 2.0000000000e+02 0.0000e+00 1.0000e+00
      556  1    1    2    0    0 +2.5775266532e+02 +3.5233102641e-01 +7.5156514032e+01 3.3479107249e+02 2.0000000000e+02 0.0000e+00 -1.0000e+00
<mgrwt>
<rscale>  0 0.69095178E+03</rscale>
<asrwt>0</asrwt>
<pdfrwt beam="2">  1        2 0.30056068E-01 0.69095178E+03</pdfrwt>
<pdfrwt beam="1">  1       -2 0.93988910E-01 0.69095178E+03</pdfrwt>
<totfact> 0.17147386E+02</totfact>
</mgrwt>
</event>
<event>
 4      1 +1.5204000e-02 5.00607700e+02 7.81860800e-03 1.01362000e-01
        2 -1    0    0  501    0 +0.0000000000e+00 +0.0000000000e+00 +4.2533699986e+02 4.2533699986e+02 0.0000000000e+00 0.0000e+00 -1.0000e+00
       -2 -1    0    0    0  501 -0.0000000000e+00 -0.0000000000e+00 -1.4729971951e+02 1.4729971951e+02 0.0000000000e+00 0.0000e+00 1.0000e+00
     -556  1    1    2    0    0 +1.1244386391e+02 -6.1932036750e+01 +2.2889045255e+02 3.2995460138e+02 2.0000000000e+02 0.0000e+00 -1.0000e+00
      556  1    1    2    0    0 -1.1244386391e+02 +6.1932036750e+01 +4.9146827807e+01 2.4268211799e+02 2.0000000000e+02 0.0000e+00 1.0000e+00
<mgrwt>
<rscale>  0 0.50060771E+03</rscale>
<asrwt>0</asrwt>
<pdfrwt beam="1">  1        2 0.65436461E-01 0.50060771E+03</pdfrwt>
<pdfrwt beam="2">  1       -2 0.22661496E-01 0.50060771E+03</pdfrwt>
<totfact> 0.12682822E+03</totfact>
</mgrwt>
</event>
<event>
 4      1 +1.5204000e-02 5.83747100e+02 7.81860800e-03 9.93971100e-02
       -2 -1    0    0    0  501 -0.0000000000e+00 +0.0000000000e+00 +1.2611342824e+03 1.2611342824e+03 0.0000000000e+00 0.0000e+00 1.0000e+00
        2 -1    0    0  501    0 +0.0000000000e+00 -0.0000000000e+00 -6.7550439247e+01 6.7550439247e+01 0.0000000000e+00 0.0000e+00 -1.0000e+00
     -556  1    1    2    0    0 +8.9854206835e+00 -1.5625613781e+02 +9.2421833320e+02 9.5847600169e+02 2.0000000000e+02 0.0000e+00 1.0000e+00
      556  1    1    2    0    0 -8.9854206835e+00 +1.5625613781e+02 +2.6936550998e+02 3.7020871999e+02 2.0000000000e+02 0.0000e+00 -1.0000e+00
<mgrwt>
<rscale>  0 0.58374712E+03</rscale>
<asrwt>0</asrwt>
<pdfrwt beam="2">  1        2 0.10392376E-01 0.58374712E+03</pdfrwt>
<pdfrwt beam="1">  1       -2 0.19402064E+00 0.58374712E+03</pdfrwt>
<totfact> 0.94511146E+01</totfact>
</mgrwt>
</event>
<event>
 4      1 +1.5204000e-02 6.00197800e+02 7.81860800e-03 9.90499600e-02
       -1 -1    0    0    0  501 -0.0000000000e+00 +0.0000000000e+00 +8.1155901128e+01 8.1155901128e+01 0.0000000000e+00 0.0000e+00 1.0000e+00
        1 -1    0    0  501    0 +0.0000000000e+00 -0.0000000000e+00 -1.1097078668e+03 1.1097078668e+03 0.0000000000e+00 0.0000e+00 -1.0000e+00
     -556  1    1    2    0    0 -1.9553036615e+02 -4.3879849969e+01 -7.1171103719e+02 7.6595702606e+02 2.0000000000e+02 0.0000e+00 1.0000e+00
      556  1    1    2    0    0 +1.9553036615e+02 +4.3879849969e+01 -3.1684092848e+02 4.2490674186e+02 2.0000000000e+02 0.0000e+00 -1.0000e+00
<mgrwt>
<rscale>  0 0.60019777E+03</rscale>
<asrwt>0</asrwt>
<pdfrwt beam="2">  1        1 0.17072428E+00 0.60019777E+03</pdfrwt>
<pdfrwt beam="1">  1       -1 0.12485524E-01 0.60019777E+03</pdfrwt>
<totfact> 0.56127215E+02</totfact>
</mgrwt>
</event>
<event>
 4      1 +1.5204000e-02 8.23328800e+02 7.81860800e-03 9.52685000e-02
        2 -1    0    0  501    0 +0.0000000000e+00 +0.0000000000e+00 +4.9085785910e+02 4.9085785910e+02 0.0000000000e+00 0.0000e+00 -1.0000e+00
       -2 -1    0    0    0  501 -0.0000000000e+00 -0.0000000000e+00 -3.4524773146e+02 3.4524773146e+02 0.0000000000e+00 0.0000e+00 1.0000e+00
     -556  1    1    2    0    0 -2.8494434996e+02 +2.7489945789e+01 -1.4856535133e+02 3.7950051819e+02 2.0000000000e+02 0.0000e+00 -1.0000e+00
      556  1    1    2    0    0 +2.8494434996e+02 -2.7489945789e+01 +2.9417547897e+02 4.5660507237e+02 2.0000000000e+02 0.0000e+00 1.0000e+00
<mgrwt>
<rscale>  0 0.82332876E+03</rscale>
<asrwt>0</asrwt>
<pdfrwt beam="1">  1        2 0.75516594E-01 0.82332876E+03</pdfrwt>
<pdfrwt beam="2">  1       -2 0.53115035E-01 0.82332876E+03</pdfrwt>
<totfact> 0.21165799E+02</totfact>
</mgrwt>
</event>
<event>
 4      1 +1.5204000e-02 1.20895000e+03 7.81860800e-03 9.10505900e-02
       -3 -1    0    0    0  501 -0.0000000000e+00 +0.0000000000e+00 +1.3075047352e+03 1.3075047352e+03 0.0000000000e+00 0.0000e+00 1.0000e+00
        3 -1    0    0  501    0 +0.0000000000e+00 -0.0000000000e+00 -2.7945581198e+02 2.7945581198e+02 0.0000000000e+00 0.0000e+00 -1.0000e+00
     -556  1    1    2    0    0 -9.5367001480e+01 -5.2168334658e+02 +2.3823284021e+02 6.1481970140e+02 2.0000000000e+02 0.0000e+00 1.0000e+00
      556  1    1    2    0    0 +9.5367001480e+01 +5.2168334658e+02 +7.8981608304e+02 9.7214084582e+02 2.0000000000e+02 0.0000e+00 -1.0000e+00
<mgrwt>
<rscale>  0 0.12089496E+04</rscale>
<asrwt>0</asrwt>
<pdfrwt beam="2">  1        3 0.42993203E-01 0.12089496E+04</pdfrwt>
<pdfrwt beam="1">  1       -3 0.20115457E+00 0.12089496E+04</pdfrwt>
<totfact> 0.20063828E+00</totfact>
</mgrwt>
</event>
<event>
 4      1 +1.5204000e-02 5.50522000e+02 7.81860800e-03 1.00137300e-01
        1 -1    0    0  501    0 +0.0000000000e+00 +0.0000000000e+00 +3.6114594924e+02 3.6114594924e+02 0.0000000000e+00 0.0000e+00 -1.0000e+00
       -1 -1    0    0    0  501 -0.0000000000e+00 -0.0000000000e+00 -2.0980057199e+02 2.0980057199e+02 0.0000000000e+00 0.0000e+00 1.0000e+00
     -556  1    1    2    0    0 +8.0474321404e+01 +1.7953571172e+01 -1.0084828790e+02 2.3868142847e+02 2.0000000000e+02 0.0000e+00 1.0000e+00
      556  1    1    2    0    0 -8.0474321404e+01 -1.7953571172e+01 +2.5219366516e+02 3.3226509276e+02 2.0000000000e+02 0.0000e+00 -1.0000e+00
<mgrwt>
<rscale>  0 0.55052203E+03</rscale>
<asrwt>0</asrwt>
<pdfrwt beam="1">  1        1 0.55560915E-01 0.55052203E+03</pdfrwt>
<pdfrwt beam="2">  1       -1 0.32277011E-01 0.55052203E+03</pdfrwt>
<totfact> 0.62160262E+02</totfact>
</mgrwt>
</event>
<event>
 4      1 +1.5204000e-02 8.59113800e+02 7.81860800e-03 9.47818600e-02
        2 -1    0    0  501    0 +0.0000000000e+00 +0.0000000000e+00 +2.4164034267e+03 2.4164034267e+03 0.0000000000e+00 0.0000e+00 1.0000e+00
       -2 -1    0    0    0  501 -0.0000000000e+00 -0.0000000000e+00 -7.6361059844e+01 7.6361059844e+01 0.0000000000e+00 0.0000e+00 -1.0000e+00
     -556  1    1    2    0    0 +2.6199712846e+02 +1.2435361734e+02 +1.8831944799e+03 1.9158621470e+03 2.0000000000e+02 0.0000e+00 1.0000e+00
      556  1    1    2    0    0 -2.6199712846e+02 -1.2435361734e+02 +4.5684788694e+02 5.7690233945e+02 2.0000000000e+02 0.0000e+00 -1.0000e+00
<mgrwt>
<rscale>  0 0.85911379E+03</rscale>
<asrwt>0</asrwt>
<pdfrwt beam="1">  1        2 0.37175431E+00 0.85911379E+03</pdfrwt>
<pdfrwt beam="2">  1       -2 0.11747857E-01 0.85911379E+03</pdfrwt>
<totfact> 0.21016224E+02</totfact>
</mgrwt>
</event>
<event>
 4      1 +1.5204000e-02 1.00914100e+03 7.81860800e-03 9.29857600e-02
       -1 -1    0    0    0  501 -0.0000000000e+00 +0.0000000000e+00 +5.6996856323e+02 5.6996856323e+02 0.0000000000e+00 0.0000e+00 1.0000e+00
        1 -1    0    0  501    0 +0.0000000000e+00 -0.0000000000e+00 -4.4667622578e+02 4.4667622578e+02 0.0000000000e+00 0.0000e+00 -1.0000e+00
     -556  1    1    2    0    0 -3.5122593744e+02 -2.9979029762e+02 +9.8764742892e+01 5.1282390361e+02 2.0000000000e+02 0.0000e+00 1.0000e+00
      556  1    1    2    0    0 +3.5122593744e+02 +2.9979029762e+02 +2.4527594557e+01 5.0382088540e+02 2.0000000000e+02 0.0000e+00 -1.0000e+00
<mgrwt>
<rscale>  0 0.10091410E+04</rscale>
<asrwt>0</asrwt>
<pdfrwt beam="2">  1        1 0.68719419E-01 0.10091410E+04</pdfrwt>
<pdfrwt beam="1">  1       -1 0.87687471E-01 0.10091410E+04</pdfrwt>
<totfact> 0.66341427E+01</totfact>
</mgrwt>
</event>
<event>
 4      1 +1.5204000e-02 5.79989700e+02 7.81860800e-03 9.94781300e-02
       -1 -1    0    0    0  501 -0.0000000000e+00 +0.0000000000e+00 +7.1178295571e+01 7.1178295571e+01 0.0000000000e+00 0.0000e+00 1.0000e+00
        1 -1    0    0  501    0 +0.0000000000e+00 -0.0000000000e+00 -1.1814979094e+03 1.1814979094e+03 0.0000000000e+00 0.0000e+00 -1.0000e+00
     -556  1    1    2    0    0 -1.0767856888e+02 +6.8476623070e+00 -1.6605882180e+02 2.8145531967e+02 2.0000000000e+02 0.0000e+00 1.0000e+00
      556  1    1    2    0    0 +1.0767856888e+02 -6.8476623070e+00 -9.4426079198e+02 9.7122088525e+02 2.0000000000e+02 0.0000e+00 -1.0000e+00
<mgrwt>
<rscale>  0 0.57998968E+03</rscale>
<asrwt>0</asrwt>
<pdfrwt beam="2">  1        1 0.18176889E+00 0.57998968E+03</pdfrwt>
<pdfrwt beam="1">  1       -1 0.10950508E-01 0.57998968E+03</pdfrwt>
<totfact> 0.61356650E+02</totfact>
</mgrwt>
</event>
<event>
 4      1 +1.5204000e-02 5.32541100e+02 7.81860800e-03 1.00561800e-01
       -2 -1    0    0    0  501 -0.0000000000e+00 +0.0000000000e+00 +1.8884080105e+02 1.8884080105e+02 0.0000000000e+00 0.0000e+00 -1.0000e+00
        2 -1    0    0  501    0 +0.0000000000e+00 -0.0000000000e+00 -3.7544851374e+02 3.7544851374e+02 0.0000000000e+00 0.0000e+00 1.0000e+00
     -556  1    1    2    0    0 +3.0343058713e+01 +6.3970124891e+01 +7.7182876320e+01 2.2576552989e+02 2.0000000000e+02 0.0000e+00 -1.0000e+00
      556  1    1    2    0    0 -3.0343058713e+01 -6.3970124891e+01 -2.6379058901e+02 3.3852378490e+02 2.0000000000e+02 0.0000e+00 1.0000e+00
<mgrwt>
<rscale>  0 0.53254107E+03</rscale>
<asrwt>0</asrwt>
<pdfrwt beam="2">  1        2 0.57761309E-01 0.53254107E+03</pdfrwt>
<pdfrwt beam="1">  1       -2 0.29052431E-01 0.53254107E+03</pdfrwt>
<totfact> 0.93208516E+02</totfact>
</mgrwt>
</event>
<event>
 4      1 +1.5204000e-02 4.25783000e+02 7.81860800e-03 1.03520000e-01
        1 -1    0    0  501    0 +0.0000000000e+00 +0.0000000000e+00 +1.0818660715e+02 1.0818660715e+02 0.0000000000e+00 0.0000e+00 -1.0000e+00
       -1 -1    0    0    0  501 -0.0000000000e+00 -0.0000000000e+00 -4.1893165893e+02 4.1893165893e+02 0.0000000000e+00 0.0000e+00 1.0000e+00
     -556  1    1    2    0    0 +5.4946204865e+01 -4.0570237861e+01 -1.8712336211e+02 2.8227678310e+02 2.0000000000e+02 0.0000e+00 1.0000e+00
      556  1    1    2    0    0 -5.4946204865e+01 +4.0570237861e+01 -1.2362168968e+02 2.4484148298e+02 2.0000000000e+02 0.0000e+00 -1.0000e+00
<mgrwt>
<rscale>  0 0.42578302E+03</rscale>
<asrwt>0</asrwt>
<pdfrwt beam="1">  1        1 0.16644094E-01 0.42578302E+03</pdfrwt>
<pdfrwt beam="2">  1       -1 0.64451024E-01 0.42578302E+03</pdfrwt>
<totfact> 0.82335791E+02</totfact>
</mgrwt>
</event>
<event>
 4      1 +1.5204000e-02 6.14408000e+02 7.81860800e-03 9.87595700e-02
        1 -1    0    0  501    0 +0.0000000000e+00 +0.0000000000e+00 +8.1635597721e+02 8.1635597721e+02 0.0000000000e+00 0.0000e+00 -1.0000e+00
       -1 -1    0    0    0  501 -0.0000000000e+00 -0.0000000000e+00 -1.1560436207e+02 1.1560436207e+02 0.0000000000e+00 0.0000e+00 1.0000e+00
     -556  1    1    2    0    0 -2.2741290290e+02 +4.9331151542e+01 +3.2766765209e+02 4.4890564838e+02 2.0000000000e+02 0.0000e+00 -1.0000e+00
      556  1    1    2    0    0 +2.2741290290e+02 -4.9331151542e+01 +3.7308396305e+02 4.8305469090e+02 2.0000000000e+02 0.0000e+00 1.0000e+00
<mgrwt>
<rscale>  0 0.61440805E+03</rscale>
<asrwt>0</asrwt>
<pdfrwt beam="1">  1        1 0.12559322E+00 0.61440805E+03</pdfrwt>
<pdfrwt beam="2">  1       -1 0.17785287E-01 0.61440805E+03</pdfrwt>
<totfact> 0.53819808E+02</totfact>
</mgrwt>
</event>
<event>
 4      1 +1.5204000e-02 8.28566000e+02 7.81860800e-03 9.51956500e-02
        2 -1    0    0  501    0 +0.0000000000e+00 +0.0000000000e+00 +8.9336566747e+02 8.9336566747e+02 0.0000000000e+00 0.0000e+00 -1.0000e+00
       -2 -1    0    0    0  501 -0.0000000000e+00 -0.0000000000e+00 -1.9211662922e+02 1.9211662922e+02 0.0000000000e+00 0.0000e+00 1.0000e+00
     -556  1    1    2    0    0 +2.7189444309e+02 -1.9074267182e+02 +5.4191787721e+02 6.6632149949e+02 2.0000000000e+02 0.0000e+00 1.0000e+00
      556  1    1    2    0    0 -2.7189444309e+02 +1.9074267182e+02 +1.5933116103e+02 4.1916079721e+02 2.0000000000e+02 0.0000e+00 -1.0000e+00
<mgrwt>
<rscale>  0 0.82856599E+03</rscale>
<asrwt>0</asrwt>
<pdfrwt beam="1">  1        2 0.13744087E+00 0.82856599E+03</pdfrwt>
<pdfrwt beam="2">  1       -2 0.29556405E-01 0.82856599E+03</pdfrwt>
<totfact> 0.31345409E+02</totfact>
</mgrwt>
</event>
<event>
 4      1 +1.5204000e-02 7.06420000e+02 7.81860800e-03 9.70631600e-02
       -1 -1    0    0    0  501 -0.0000000000e+00 +0.0000000000e+00 +1.6694700013e+02 1.6694700013e+02 0.0000000000e+00 0.0000e+00 1.0000e+00
        1 -1    0    0  501    0 +0.0000000000e+00 -0.0000000000e+00 -7.4728684719e+02 7.4728684719e+02 0.0000000000e+00 0.0000e+00 -1.0000e+00
     -556  1    1    2    0    0 -1.1542596588e+02 +1.6041377711e+02 -5.6683851058e+02 6.3274136151e+02 2.0000000000e+02 0.0000e+00 -1.0000e+00
      556  1    1    2    0    0 +1.1542596588e+02 -1.6041377711e+02 -1.3501336481e+01 2.8149248582e+02 2.0000000000e+02 0.0000e+00 1.0000e+00
<mgrwt>
<rscale>  0 0.70641998E+03</rscale>
<asrwt>0</asrwt>
<pdfrwt beam="2">  1        1 0.11496721E+00 0.70641998E+03</pdfrwt>
<pdfrwt beam="1">  1       -1 0.25684154E-01 0.70641998E+03</pdfrwt>
<totfact> 0.33299223E+02</totfact>
</mgrwt>
</event>
<event>
 4      1 +1.5204000e-02 6.09581400e+02 7.81860800e-03 9.88572500e-02
       -2 -1    0    0    0  501 -0.0000000000e+00 +0.0000000000e+00 +3.4463075382e+01 3.4463075382e+01 0.0000000000e+00 0.0000e+00 -1.0000e+00
        2 -1    0    0  501    0 +0.0000000000e+00 -0.0000000000e+00 -2.6955628526e+03 2.6955628526e+03 0.0000000000e+00 0.0000e+00 1.0000e+00
     -556  1    1    2    0    0 +1.8419537126e+02 +9.4546697597e+01 -8.8201774616e+02 9.2780510742e+02 2.0000000000e+02 0.0000e+00 -1.0000e+00
      556  1    1    2    0    0 -1.8419537126e+02 -9.4546697597e+01 -1.7790820310e+03 1.8022208205e+03 2.0000000000e+02 0.0000e+00 1.0000e+00
<mgrwt>
<rscale>  0 0.60958145E+03</rscale>
<asrwt>0</asrwt>
<pdfrwt beam="2">  1        2 0.41470205E+00 0.60958145E+03</pdfrwt>
<pdfrwt beam="1">  1       -2 0.53020107E-02 0.60958145E+03</pdfrwt>
<totfact> 0.53276147E+02</totfact>
</mgrwt>
</event>
<event>
 4      1 +1.5204000e-02 6.63414100e+02 7.81860800e-03 9.78192900e-02
       -2 -1    0    0    0  501 -0.0000000000e+00 +0.0000000000e+00 +1.5815384414e+02 1.5815384414e+02 0.0000000000e+00 0.0000e+00 1.0000e+00
        2 -1    0    0  501    0 +0.0000000000e+00 -0.0000000000e+00 -6.9571229360e+02 6.9571229360e+02 0.0000000000e+00 0.0000e+00 -1.0000e+00
     -556  1    1    2    0    0 -1.2916113323e+02 +1.8552175437e+02 -4.4585736250e+02 5.3841406684e+02 2.0000000000e+02 0.0000e+00 -1.0000e+00
      556  1    1    2    0    0 +1.2916113323e+02 -1.8552175437e+02 -9.1701086962e+01 3.1545207089e+02 2.0000000000e+02 0.0000e+00 1.0000e+00
<mgrwt>
<rscale>  0 0.66341412E+03</rscale>
<asrwt>0</asrwt>
<pdfrwt beam="2">  1        2 0.10703266E+00 0.66341412E+03</pdfrwt>
<pdfrwt beam="1">  1       -2 0.24331360E-01 0.66341412E+03</pdfrwt>
<totfact> 0.62522135E+02</totfact>
</mgrwt>
</event>
<event>
 4      1 +1.5204000e-02 5.73498500e+02 7.81860800e-03 9.96196700e-02
       -1 -1    0    0    0  501 -0.0000000000e+00 +0.0000000000e+00 +6.7769557135e+01 6.7769557135e+01 0.0000000000e+00 0.0000e+00 1.0000e+00
        1 -1    0    0  501    0 +0.0000000000e+00 -0.0000000000e+00 -1.2133046447e+03 1.2133046447e+03 0.0000000000e+00 0.0000e+00 -1.0000e+00
     -556  1    1    2    0    0 +1.0735770753e+02 -1.0259348108e+02 -2.5549079565e+02 3.5682859525e+02 2.0000000000e+02 0.0000e+00 1.0000e+00
      556  1    1    2    0    0 -1.0735770753e+02 +1.0259348108e+02 -8.9004429189e+02 9.2424560656e+02 2.0000000000e+02 0.0000e+00 -1.0000e+00
<mgrwt>
<rscale>  0 0.57349845E+03</rscale>
<asrwt>0</asrwt>
<pdfrwt beam="2">  1        1 0.18666225E+00 0.57349845E+03</pdfrwt>
<pdfrwt beam="1">  1       -1 0.10426086E-01 0.57349845E+03</pdfrwt>
<totfact> 0.62930349E+02</totfact>
</mgrwt>
</event>
<event>
 4      1 +1.5204000e-02 7.50629500e+02 7.81860800e-03 9.63436300e-02
       -1 -1    0    0    0  501 -0.0000000000e+00 +0.0000000000e+00 +2.9735796772e+02 2.9735796772e+02 0.0000000000e+00 0.0000e+00 1.0000e+00
        1 -1    0    0  501    0 +0.0000000000e+00 -0.0000000000e+00 -4.7370908047e+02 4.7370908047e+02 0.0000000000e+00 0.0000e+00 -1.0000e+00
     -556  1    1    2    0    0 -2.4293871087e+02 +1.8738754294e+02 -3.9187473767e+00 3.6626310907e+02 2.0000000000e+02 0.0000e+00 1.0000e+00
      556  1    1    2    0    0 +2.4293871087e+02 -1.8738754294e+02 -1.7243236538e+02 4.0480393911e+02 2.0000000000e+02 0.0000e+00 -1.0000e+00
<mgrwt>
<rscale>  0 0.75062952E+03</rscale>
<asrwt>0</asrwt>
<pdfrwt beam="2">  1        1 0.72878319E-01 0.75062952E+03</pdfrwt>
<pdfrwt beam="1">  1       -1 0.45747380E-01 0.75062952E+03</pdfrwt>
<totfact> 0.22954725E+02</totfact>
</mgrwt>
</event>
<event>
 4      1 +1.5204000e-02 4.86645100e+02 7.81860800e-03 1.01732500e-01
       -1 -1    0    0    0  501 -0.0000000000e+00 +0.0000000000e+00 +9.7878200822e+01 9.7878200822e+01 0.0000000000e+00 0.0000e+00 1.0000e+00
        1 -1    0    0  501    0 +0.0000000000e+00 -0.0000000000e+00 -6.0489334522e+02 6.0489334522e+02 0.0000000000e+00 0.0000e+00 -1.0000e+00
     -556  1    1    2    0    0 -1.2982742056e+02 +5.9506351336e+00 -1.8402022832e+02 3.0125406822e+02 2.0000000000e+02 0.0000e+00 1.0000e+00
      556  1    1    2    0    0 +1.2982742056e+02 -5.9506351336e+00 -3.2299491607e+02 4.0151747782e+02 2.0000000000e+02 0.0000e+00 -1.0000e+00
<mgrwt>
<rscale>  0 0.48664514E+03</rscale>
<asrwt>0</asrwt>
<pdfrwt beam="2">  1        1 0.93060516E-01 0.48664514E+03</pdfrwt>
<pdfrwt beam="1">  1       -1 0.15058184E-01 0.48664514E+03</pdfrwt>
<totfact> 0.11114450E+03</totfact>
</mgrwt>
</event>
<event>
 4      1 +1.5204000e-02 6.29465800e+02 7.81860800e-03 9.84609200e-02
       -2 -1    0    0    0  501 -0.0000000000e+00 +0.0000000000e+00 +5.0050462147e+01 5.0050462147e+01 0.0000000000e+00 0.0000e+00 -1.0000e+00
        2 -1    0    0  501    0 +0.0000000000e+00 -0.0000000000e+00 -1.9791384534e+03 1.9791384534e+03 0.0000000000e+00 0.0000e+00 1.0000e+00
     -556  1    1    2    0    0 +2.3685398400e+01 +8.2481942674e+01 -2.3161108075e+02 3.1781749746e+02 2.0000000000e+02 0.0000e+00 -1.0000e+00
      556  1    1    2    0    0 -2.3685398400e+01 -8.2481942674e+01 -1.6974769105e+03 1.7113714181e+03 2.0000000000e+02 0.0000e+00 1.0000e+00
<mgrwt>
<rscale>  0 0.62946579E+03</rscale>
<asrwt>0</asrwt>
<pdfrwt beam="2">  1        2 0.30448278E+00 0.62946579E+03</pdfrwt>
<pdfrwt beam="1">  1       -2 0.77000726E-02 0.62946579E+03</pdfrwt>
<totfact> 0.73998448E+02</totfact>
</mgrwt>
</event>
<event>
 4      1 +1.5204000e-02 5.16246900e+02 7.81860800e-03 1.00962300e-01
       -1 -1    0    0    0  501 -0.0000000000e+00 +0.0000000000e+00 +2.5072072747e+02 2.5072072747e+02 0.0000000000e+00 0.0000e+00 1.0000e+00
        1 -1    0    0  501    0 +0.0000000000e+00 -0.0000000000e+00 -2.6574477077e+02 2.6574477077e+02 0.0000000000e+00 0.0000e+00 -1.0000e+00
     -556  1    1    2    0    0 -1.0809438709e+02 +1.1299468024e+02 +3.9150281476e+01 2.5687533712e+02 2.0000000000e+02 0.0000e+00 1.0000e+00
      556  1    1    2    0    0 +1.0809438709e+02 -1.1299468024e+02 -5.4174324772e+01 2.5959016112e+02 2.0000000000e+02 0.0000e+00 -1.0000e+00
<mgrwt>
<rscale>  0 0.51624693E+03</rscale>
<asrwt>0</asrwt>
<pdfrwt beam="2">  1        1 0.40883811E-01 0.51624693E+03</pdfrwt>
<pdfrwt beam="1">  1       -1 0.38572419E-01 0.51624693E+03</pdfrwt>
<totfact> 0.67373624E+02</totfact>
</mgrwt>
</event>
<event>
 4      1 +1.5204000e-02 5.35134100e+02 7.81860800e-03 1.00499500e-01
       -2 -1    0    0    0  501 -0.0000000000e+00 +0.0000000000e+00 +2.3378952774e+02 2.3378952774e+02 0.0000000000e+00 0.0000e+00 1.0000e+00
        2 -1    0    0  501    0 +0.0000000000e+00 -0.0000000000e+00 -3.0622463773e+02 3.0622463773e+02 0.0000000000e+00 0.0000e+00 -1.0000e+00
     -556  1    1    2    0    0 +1.3042035923e+02 +1.1203813463e+02 +9.2499633731e+00 2.6390827107e+02 2.0000000000e+02 0.0000e+00 1.0000e+00
      556  1    1    2    0    0 -1.3042035923e+02 -1.1203813463e+02 -8.1685073364e+01 2.7610589440e+02 2.0000000000e+02 0.0000e+00 -1.0000e+00
<mgrwt>
<rscale>  0 0.53513405E+03</rscale>
<asrwt>0</asrwt>
<pdfrwt beam="2">  1        2 0.47111483E-01 0.53513405E+03</pdfrwt>
<pdfrwt beam="1">  1       -2 0.35967620E-01 0.53513405E+03</pdfrwt>
<totfact> 0.78358393E+02</totfact>
</mgrwt>
</event>
<event>
 4      1 +1.5204000e-02 8.84477400e+02 7.81860800e-03 9.44519600e-02
       -1 -1    0    0    0  501 -0.0000000000e+00 +0.0000000000e+00 +3.3917459881e+02 3.3917459881e+02 0.0000000000e+00 0.0000e+00 1.0000e+00
        1 -1    0    0  501    0 +0.0000000000e+00 -0.0000000000e+00 -5.7662056332e+02 5.7662056332e+02 0.0000000000e+00 0.0000e+00 -1.0000e+00
     -556  1    1    2    0    0 +1.9558583744e+01 -1.4359065577e+02 +2.6110992173e+02 3.5941508851e+02 2.0000000000e+02 0.0000e+00 1.0000e+00
      556  1    1    2    0    0 -1.9558583744e+01 +1.4359065577e+02 -4.9855588623e+02 5.5638007362e+02 2.0000000000e+02 0.0000e+00 -1.0000e+00
<mgrwt>
<rscale>  0 0.88447736E+03</rscale>
<asrwt>0</asrwt>
<pdfrwt beam="2">  1        1 0.88710855E-01 0.88447736E+03</pdfrwt>
<pdfrwt beam="1">  1       -1 0.52180708E-01 0.88447736E+03</pdfrwt>
<totfact> 0.13526814E+02</totfact>
</mgrwt>
</event>
<event>
 4      1 +1.5204000e-02 4.52807200e+02 7.81860800e-03 1.02688800e-01
        2 -1    0    0  501    0 +0.0000000000e+00 +0.0000000000e+00 +5.5389947753e+02 5.5389947753e+02 0.0000000000e+00 0.0000e+00 -1.0000e+00
       -2 -1    0    0    0  501 -0.0000000000e+00 -0.0000000000e+00 -9.2541341776e+01 9.2541341776e+01 0.0000000000e+00 0.0000e+00 1.0000e+00
     -556  1    1    2    0    0 -6.7325908170e+01 +4.0466953874e+01 +3.3251465301e+02 3.9589941492e+02 2.0000000000e+02 0.0000e+00 -1.0000e+00
      556  1    1    2    0    0 +6.7325908170e+01 -4.0466953874e+01 +1.2884348274e+02 2.5054140439e+02 2.0000000000e+02 0.0000e+00 1.0000e+00
<mgrwt>
<rscale>  0 0.45280725E+03</rscale>
<asrwt>0</asrwt>
<pdfrwt beam="1">  1        2 0.85215302E-01 0.45280725E+03</pdfrwt>
<pdfrwt beam="2">  1       -2 0.14237130E-01 0.45280725E+03</pdfrwt>
<totfact> 0.20794067E+03</totfact>
</mgrwt>
</event>
<event>
 4      1 +1.5204000e-02 4.78356400e+02 7.81860800e-03 1.01958800e-01
        2 -1    0    0  501    0 +0.0000000000e+00 +0.0000000000e+00 +5.1931233364e+02 5.1931233364e+02 0.0000000000e+00 0.0000e+00 1.0000e+00
       -2 -1    0    0    0  501 -0.0000000000e+00 -0.0000000000e+00 -1.1015760352e+02 1.1015760352e+02 0.0000000000e+00 0.0000e+00 -1.0000e+00
     -556  1    1    2    0    0 -6.7710697871e+01 -7.9890047983e+01 +3.0851730370e+02 3.8229580832e+02 2.0000000000e+02 0.0000e+00 1.0000e+00
      556  1    1    2    0    0 +6.7710697871e+01 +7.9890047983e+01 +1.0063742642e+02 2.4717412884e+02 2.0000000000e+02 0.0000e+00 -1.0000e+00
<mgrwt>
<rscale>  0 0.47835636E+03</rscale>
<asrwt>0</asrwt>
<pdfrwt beam="1">  1        2 0.79894204E-01 0.47835636E+03</pdfrwt>
<pdfrwt beam="2">  1       -2 0.16947324E-01 0.47835636E+03</pdfrwt>
<totfact> 0.16720735E+03</totfact>
</mgrwt>
</event>
<event>
 4      1 +1.5204000e-02 5.42168200e+02 7.81860800e-03 1.00332300e-01
       -2 -1    0    0    0  501 -0.0000000000e+00 +0.0000000000e+00 +7.5623413463e+01 7.5623413463e+01 0.0000000000e+00 0.0000e+00 1.0000e+00
        2 -1    0    0  501    0 +0.0000000000e+00 -0.0000000000e+00 -9.7174385475e+02 9.7174385475e+02 0.0000000000e+00 0.0000e+00 -1.0000e+00
     -556  1    1    2    0    0 +3.4670165501e+01 -7.1518467150e+00 -1.0122903361e+02 2.2693718632e+02 2.0000000000e+02 0.0000e+00 1.0000e+00
      556  1    1    2    0    0 -3.4670165501e+01 +7.1518467150e+00 -7.9489140767e+02 8.2043008189e+02 2.0000000000e+02 0.0000e+00 -1.0000e+00
<mgrwt>
<rscale>  0 0.54216819E+03</rscale>
<asrwt>0</asrwt>
<pdfrwt beam="2">  1        2 0.14949905E+00 0.54216819E+03</pdfrwt>
<pdfrwt beam="1">  1       -2 0.11634372E-01 0.54216819E+03</pdfrwt>
<totfact> 0.14170251E+03</totfact>
</mgrwt>
</event>
<event>
 4      1 +1.5204000e-02 7.16157200e+02 7.81860800e-03 9.68999300e-02
       -1 -1    0    0    0  501 -0.0000000000e+00 +0.0000000000e+00 +5.8091875084e+02 5.8091875084e+02 0.0000000000e+00 0.0000e+00 1.0000e+00
        1 -1    0    0  501    0 +0.0000000000e+00 -0.0000000000e+00 -2.2071980398e+02 2.2071980398e+02 0.0000000000e+00 0.0000e+00 -1.0000e+00
     -556  1    1    2    0    0 -2.0169800542e+02 +1.9350060341e+01 +4.2319360494e+02 5.1004836779e+02 2.0000000000e+02 0.0000e+00 1.0000e+00
      556  1    1    2    0    0 +2.0169800542e+02 -1.9350060341e+01 -6.2994658073e+01 2.9159018703e+02 2.0000000000e+02 0.0000e+00 -1.0000e+00
<mgrwt>
<rscale>  0 0.71615717E+03</rscale>
<asrwt>0</asrwt>
<pdfrwt beam="2">  1        1 0.33956893E-01 0.71615717E+03</pdfrwt>
<pdfrwt beam="1">  1       -1 0.89372115E-01 0.71615717E+03</pdfrwt>
<totfact> 0.16287776E+02</totfact>
</mgrwt>
</event>
<event>
 4      1 +1.5204000e-02 4.77706000e+02 7.81860800e-03 1.01976800e-01
       -1 -1    0    0    0  501 -0.0000000000e+00 +0.0000000000e+00 +5.6577283254e+01 5.6577283254e+01 0.0000000000e+00 0.0000e+00 1.0000e+00
        1 -1    0    0  501    0 +0.0000000000e+00 -0.0000000000e+00 -1.0083685127e+03 1.0083685127e+03 0.0000000000e+00 0.0000e+00 -1.0000e+00
     -556  1    1    2    0    0 -4.9439715559e+01 -9.4610277100e+01 -3.0824815014e+02 3.8263861811e+02 2.0000000000e+02 0.0000e+00 1.0000e+00
      556  1    1    2    0    0 +4.9439715559e+01 +9.4610277100e+01 -6.4354307930e+02 6.8230717783e+02 2.0000000000e+02 0.0000e+00 -1.0000e+00
<mgrwt>
<rscale>  0 0.47770598E+03</rscale>
<asrwt>0</asrwt>
<pdfrwt beam="2">  1        1 0.15513363E+00 0.47770598E+03</pdfrwt>
<pdfrwt beam="1">  1       -1 0.87041969E-02 0.47770598E+03</pdfrwt>
<totfact> 0.11869717E+03</totfact>
</mgrwt>
</event>
<event>
 4      1 +1.5204000e-02 9.02053500e+02 7.81860800e-03 9.42301800e-02
        2 -1    0    0  501    0 +0.0000000000e+00 +0.0000000000e+00 +1.3088995993e+03 1.3088995993e+03 0.0000000000e+00 0.0000e+00 -1.0000e+00
       -2 -1    0    0    0  501 -0.0000000000e+00 -0.0000000000e+00 -1.5541690045e+02 1.5541690045e+02 0.0000000000e+00 0.0000e+00 1.0000e+00
     -556  1    1    2    0    0 +2.0307796202e+02 -2.5836957463e+02 +9.5892634562e+02 1.0332159658e+03 2.0000000000e+02 0.0000e+00 -1.0000e+00
      556  1    1    2    0    0 -2.0307796202e+02 +2.5836957463e+02 +1.9455635325e+02 4.3110053392e+02 2.0000000000e+02 0.0000e+00 1.0000e+00
<mgrwt>
<rscale>  0 0.90205348E+03</rscale>
<asrwt>0</asrwt>
<pdfrwt beam="1">  1        2 0.20136916E+00 0.90205348E+03</pdfrwt>
<pdfrwt beam="2">  1       -2 0.23910293E-01 0.90205348E+03</pdfrwt>
<totfact> 0.25436226E+02</totfact>
</mgrwt>
</event>
<event>
 4      1 +1.5204000e-02 7.42970600e+02 7.81860800e-03 9.64644300e-02
       -2 -1    0    0    0  501 -0.0000000000e+00 +0.0000000000e+00 +7.7422328817e+01 7.7422328817e+01 0.0000000000e+00 0.0000e+00 -1.0000e+00
        2 -1    0    0  501    0 +0.0000000000e+00 -0.0000000000e+00 -1.7824487661e+03 1.7824487661e+03 0.0000000000e+00 0.0000e+00 1.0000e+00
     -556  1    1    2    0    0 -2.6077369466e+02 -1.3561629968e+02 -5.8282352543e+02 6.8269902766e+02 2.0000000000e+02 0.0000e+00 1.0000e+00
      556  1    1    2    0    0 +2.6077369466e+02 +1.3561629968e+02 -1.1222029118e+03 1.1771720672e+03 2.0000000000e+02 0.0000e+00 -1.0000e+00
<mgrwt>
<rscale>  0 0.74297062E+03</rscale>
<asrwt>0</asrwt>
<pdfrwt beam="2">  1        2 0.27422287E+00 0.74297062E+03</pdfrwt>
<pdfrwt beam="1">  1       -2 0.11911128E-01 0.74297062E+03</pdfrwt>
<totfact> 0.46319358E+02</totfact>
</mgrwt>
</event>
<event>
 4      1 +1.5204000e-02 1.03284500e+03 7.81860800e-03 9.27323600e-02
        3 -1    0    0  501    0 +0.0000000000e+00 +0.0000000000e+00 +5.2242211416e+02 5.2242211416e+02 0.0000000000e+00 0.0000e+00 -1.0000e+00
       -3 -1    0    0    0  501 -0.0000000000e+00 -0.0000000000e+00 -5.1049217399e+02 5.1049217399e+02 0.0000000000e+00 0.0000e+00 1.0000e+00
     -556  1    1    2    0    0 +1.9635029964e+02 +2.1046906306e+02 -3.7332505723e+02 5.1207642499e+02 2.0000000000e+02 0.0000e+00 1.0000e+00
      556  1    1    2    0    0 -1.9635029964e+02 -2.1046906306e+02 +3.8525499740e+02 5.2083786316e+02 2.0000000000e+02 0.0000e+00 -1.0000e+00
<mgrwt>
<rscale>  0 0.10328454E+04</rscale>
<asrwt>0</asrwt>
<pdfrwt beam="1">  1        3 0.80372633E-01 0.10328454E+04</pdfrwt>
<pdfrwt beam="2">  1       -3 0.78537257E-01 0.10328454E+04</pdfrwt>
<totfact> 0.57003010E+00</totfact>
</mgrwt>
</event>
<event>
 4      1 +1.5204000e-02 5.34024800e+02 7.81860800e-03 1.00526100e-01
        1 -1    0    0  501    0 +0.0000000000e+00 +0.0000000000e+00 +6.7937073984e+01 6.7937073984e+01 0.0000000000e+00 0.0000e+00 -1.0000e+00
       -1 -1    0    0    0  501 -0.0000000000e+00 -0.0000000000e+00 -1.0494363040e+03 1.0494363040e+03 0.0000000000e+00 0.0000e+00 1.0000e+00
     -556  1    1    2    0    0 -1.0262437241e+02 +1.4407603966e+02 -4.9585978243e+02 5.6317545299e+02 2.0000000000e+02 0.0000e+00 1.0000e+00
      556  1    1    2    0    0 +1.0262437241e+02 -1.4407603966e+02 -4.8563944759e+02 5.5419792500e+02 2.0000000000e+02 0.0000e+00 -1.0000e+00
<mgrwt>
<rscale>  0 0.53402484E+03</rscale>
<asrwt>0</asrwt>
<pdfrwt beam="1">  1        1 0.10451858E-01 0.53402484E+03</pdfrwt>
<pdfrwt beam="2">  1       -1 0.16145174E+00 0.53402484E+03</pdfrwt>
<totfact> 0.18483055E+02</totfact>
</mgrwt>
</event>
<event>
 4      1 +1.5204000e-02 6.22534500e+02 7.81860800e-03 9.85972600e-02
        1 -1    0    0  501    0 +0.0000000000e+00 +0.0000000000e+00 +4.7427510140e+02 4.7427510140e+02 0.0000000000e+00 0.0000e+00 -1.0000e+00
       -1 -1    0    0    0  501 -0.0000000000e+00 -0.0000000000e+00 -2.0428504621e+02 2.0428504621e+02 0.0000000000e+00 0.0000e+00 1.0000e+00
     -556  1    1    2    0    0 +2.3362589516e+02 +4.1271495089e+01 +1.0823089096e+02 3.2863097991e+02 2.0000000000e+02 0.0000e+00 1.0000e+00
      556  1    1    2    0    0 -2.3362589516e+02 -4.1271495089e+01 +1.6175916423e+02 3.4992916770e+02 2.0000000000e+02 0.0000e+00 -1.0000e+00
<mgrwt>
<rscale>  0 0.62253453E+03</rscale>
<asrwt>0</asrwt>
<pdfrwt beam="1">  1        1 0.72965400E-01 0.62253453E+03</pdfrwt>
<pdfrwt beam="2">  1       -1 0.31428469E-01 0.62253453E+03</pdfrwt>
<totfact> 0.45305534E+02</totfact>
</mgrwt>
</event>
<event>
 4      1 +1.5204000e-02 5.14059200e+02 7.81860800e-03 1.01017300e-01
        1 -1    0    0  501    0 +0.0000000000e+00 +0.0000000000e+00 +3.3201954202e+02 3.3201954202e+02 0.0000000000e+00 0.0000e+00 -1.0000e+00
       -1 -1    0    0    0  501 -0.0000000000e+00 -0.0000000000e+00 -1.9897692565e+02 1.9897692565e+02 0.0000000000e+00 0.0000e+00 1.0000e+00
     -556  1    1    2    0    0 -6.5769936937e+01 -1.3465806005e+02 +1.2854766316e+02 2.8103910661e+02 2.0000000000e+02 0.0000e+00 -1.0000e+00
      556  1    1    2    0    0 +6.5769936937e+01 +1.3465806005e+02 +4.4949532140e+00 2.4995736106e+02 2.0000000000e+02 0.0000e+00 1.0000e+00
<mgrwt>
<rscale>  0 0.51405925E+03</rscale>
<asrwt>0</asrwt>
<pdfrwt beam="1">  1        1 0.51079929E-01 0.51405925E+03</pdfrwt>
<pdfrwt beam="2">  1       -1 0.30611835E-01 0.51405925E+03</pdfrwt>
<totfact> 0.76072637E+02</totfact>
</mgrwt>
</event>
<event>
 4      1 +1.5204000e-02 7.77500400e+02 7.81860800e-03 9.59316800e-02
       -1 -1    0    0    0  501 -0.0000000000e+00 +0.0000000000e+00 +2.5254726047e+02 2.5254726047e+02 0.0000000000e+00 0.0000e+00 1.0000e+00
        1 -1    0    0  501    0 +0.0000000000e+00 -0.0000000000e+00 -5.9840958599e+02 5.9840958599e+02 0.0000000000e+00 0.0000e+00 -1.0000e+00
     -556  1    1    2    0    0 -2.0092248347e+02 -2.2491974886e+02 -1.7500046607e+01 3.6230510543e+02 2.0000000000e+02 0.0000e+00 1.0000e+00
      556  1    1    2    0    0 +2.0092248347e+02 +2.2491974886e+02 -3.2836227892e+02 4.8865174102e+02 2.0000000000e+02 0.0000e+00 -1.0000e+00
<mgrwt>
<rscale>  0 0.77750036E+03</rscale>
<asrwt>0</asrwt>
<pdfrwt beam="2">  1        1 0.92063012E-01 0.77750036E+03</pdfrwt>
<pdfrwt beam="1">  1       -1 0.38853425E-01 0.77750036E+03</pdfrwt>
<totfact> 0.22330430E+02</totfact>
</mgrwt>
</event>
<event>
 4      1 +1.5204000e-02 7.60112200e+02 7.81860800e-03 9.61961800e-02
       -1 -1    0    0    0  501 -0.0000000000e+00 +0.0000000000e+00 +2.0707528422e+02 2.0707528422e+02 0.0000000000e+00 0.0000e+00 1.0000e+00
        1 -1    0    0  501    0 +0.0000000000e+00 -0.0000000000e+00 -6.9753685234e+02 6.9753685234e+02 0.0000000000e+00 0.0000e+00 -1.0000e+00
     -556  1    1    2    0    0 -2.3209896232e+02 -2.1830429663e+02 -1.8096577561e+02 4.1746293989e+02 2.0000000000e+02 0.0000e+00 -1.0000e+00
      556  1    1    2    0    0 +2.3209896232e+02 +2.1830429663e+02 -3.0949579251e+02 4.8714919667e+02 2.0000000000e+02 0.0000e+00 1.0000e+00
<mgrwt>
<rscale>  0 0.76011221E+03</rscale>
<asrwt>0</asrwt>
<pdfrwt beam="2">  1        1 0.10731336E+00 0.76011221E+03</pdfrwt>
<pdfrwt beam="1">  1       -1 0.31857736E-01 0.76011221E+03</pdfrwt>
<totfact> 0.25408060E+02</totfact>
</mgrwt>
</event>
<event>
 4      1 +1.5204000e-02 6.06708900e+02 7.81860800e-03 9.89158400e-02
       -1 -1    0    0    0  501 -0.0000000000e+00 +0.0000000000e+00 +1.4282730282e+02 1.4282730282e+02 0.0000000000e+00 0.0000e+00 1.0000e+00
        1 -1    0    0  501    0 +0.0000000000e+00 -0.0000000000e+00 -6.4430204631e+02 6.4430204631e+02 0.0000000000e+00 0.0000e+00 -1.0000e+00
     -556  1    1    2    0    0 -2.0524555764e+02 -8.8898094447e+01 -3.0868975378e+02 4.3048574217e+02 2.0000000000e+02 0.0000e+00 -1.0000e+00
      556  1    1    2    0    0 +2.0524555764e+02 +8.8898094447e+01 -1.9278498972e+02 3.5664360696e+02 2.0000000000e+02 0.0000e+00 1.0000e+00
<mgrwt>
<rscale>  0 0.60670890E+03</rscale>
<asrwt>0</asrwt>
<pdfrwt beam="2">  1        1 0.99123393E-01 0.60670890E+03</pdfrwt>
<pdfrwt beam="1">  1       -1 0.21973431E-01 0.60670890E+03</pdfrwt>
<totfact> 0.54395591E+02</totfact>
</mgrwt>
</event>
<event>
 4      1 +1.5204000e-02 4.99183300e+02 7.81860800e-03 1.01399200e-01
        1 -1    0    0  501    0 +0.0000000000e+00 +0.0000000000e+00 +1.8783349508e+03 1.8783349508e+03 0.0000000000e+00 0.0000e+00 -1.0000e+00
       -1 -1    0    0    0  501 -0.0000000000e+00 -0.0000000000e+00 -3.3165534301e+01 3.3165534301e+01 0.0000000000e+00 0.0000e+00 1.0000e+00
     -556  1    1    2    0    0 -4.8082244013e+01 -1.9212700225e+01 +3.8628442661e+02 4.3806014231e+02 2.0000000000e+02 0.0000e+00 1.0000e+00
      556  1    1    2    0    0 +4.8082244013e+01 +1.9212700225e+01 +1.4588849899e+03 1.4734403428e+03 2.0000000000e+02 0.0000e+00 -1.0000e+00
<mgrwt>
<rscale>  0 0.49918326E+03</rscale>
<asrwt>0</asrwt>
<pdfrwt beam="1">  1        1 0.28897452E+00 0.49918326E+03</pdfrwt>
<pdfrwt beam="2">  1       -1 0.51023914E-02 0.49918326E+03</pdfrwt>
<totfact> 0.67642935E+02</totfact>
</mgrwt>
</event>
<event>
 4      1 +1.5204000e-02 7.17570700e+02 7.81860800e-03 9.68764700e-02
       -1 -1    0    0    0  501 -0.0000000000e+00 +0.0000000000e+00 +2.1340747468e+02 2.1340747468e+02 0.0000000000e+00 0.0000e+00 1.0000e+00
        1 -1    0    0  501    0 +0.0000000000e+00 -0.0000000000e+00 -6.0319788985e+02 6.0319788985e+02 0.0000000000e+00 0.0000e+00 -1.0000e+00
     -556  1    1    2    0    0 +9.0775483454e+01 -6.1067839019e+01 +1.2039307863e+02 2.5780605645e+02 2.0000000000e+02 0.0000e+00 1.0000e+00
      556  1    1    2    0    0 -9.0775483454e+01 +6.1067839019e+01 -5.1018349380e+02 5.5879930808e+02 2.0000000000e+02 0.0000e+00 -1.0000e+00
<mgrwt>
<rscale>  0 0.71757073E+03</rscale>
<asrwt>0</asrwt>
<pdfrwt beam="2">  1        1 0.92799674E-01 0.71757073E+03</pdfrwt>
<pdfrwt beam="1">  1       -1 0.32831920E-01 0.71757073E+03</pdfrwt>
<totfact> 0.29907377E+02</totfact>
</mgrwt>
</event>
<event>
 4      1 +1.5204000e-02 4.68186800e+02 7.81860800e-03 1.02243300e-01
        4 -1    0    0  501    0 +0.0000000000e+00 +0.0000000000e+00 +1.4526252398e+02 1.4526252398e+02 0.0000000000e+00 0.0000e+00 -1.0000e+00
       -4 -1    0    0    0  501 -0.0000000000e+00 -0.0000000000e+00 -3.7724603187e+02 3.7724603187e+02 0.0000000000e+00 0.0000e+00 1.0000e+00
     -556  1    1    2    0    0 -3.9518946925e+00 -1.8005041526e+01 +1.8209662233e+01 2.0167149226e+02 2.0000000000e+02 0.0000e+00 -1.0000e+00
      556  1    1    2    0    0 +3.9518946925e+00 +1.8005041526e+01 -2.5019317013e+02 3.2083706359e+02 2.0000000000e+02 0.0000e+00 1.0000e+00
<mgrwt>
<rscale>  0 0.46818676E+03</rscale>
<asrwt>0</asrwt>
<pdfrwt beam="1">  1        4 0.22348081E-01 0.46818676E+03</pdfrwt>
<pdfrwt beam="2">  1       -4 0.58037850E-01 0.46818676E+03</pdfrwt>
<totfact> 0.10251364E+02</totfact>
</mgrwt>
</event>
<event>
 4      1 +1.5204000e-02 6.75020600e+02 7.81860800e-03 9.76093000e-02
        2 -1    0    0  501    0 +0.0000000000e+00 +0.0000000000e+00 +1.2525149074e+03 1.2525149074e+03 0.0000000000e+00 0.0000e+00 1.0000e+00
       -2 -1    0    0    0  501 -0.0000000000e+00 -0.0000000000e+00 -9.0947574810e+01 9.0947574810e+01 0.0000000000e+00 0.0000e+00 -1.0000e+00
     -556  1    1    2    0    0 -3.2092160014e+01 +2.6288205466e+02 +4.5847915985e+02 5.6598588446e+02 2.0000000000e+02 0.0000e+00 1.0000e+00
      556  1    1    2    0    0 +3.2092160014e+01 -2.6288205466e+02 +7.0308817277e+02 7.7747659778e+02 2.0000000000e+02 0.0000e+00 -1.0000e+00
<mgrwt>
<rscale>  0 0.67502057E+03</rscale>
<asrwt>0</asrwt>
<pdfrwt beam="1">  1        2 0.19269459E+00 0.67502057E+03</pdfrwt>
<pdfrwt beam="2">  1       -2 0.13991935E-01 0.67502057E+03</pdfrwt>
<totfact> 0.70218429E+02</totfact>
</mgrwt>
</event>
<event>
 4      1 +1.5204000e-02 6.02243000e+02 7.81860800e-03 9.90076300e-02
       -1 -1    0    0    0  501 -0.0000000000e+00 +0.0000000000e+00 +5.5252153602e+01 5.5252153602e+01 0.0000000000e+00 0.0000e+00 1.0000e+00
        1 -1    0    0  501    0 +0.0000000000e+00 -0.0000000000e+00 -1.6410975232e+03 1.6410975232e+03 0.0000000000e+00 0.0000e+00 -1.0000e+00
     -556  1    1    2    0    0 -2.1948847112e+02 -2.1272012279e+01 -9.2034569600e+02 9.6729720748e+02 2.0000000000e+02 0.0000e+00 -1.0000e+00
      556  1    1    2    0    0 +2.1948847112e+02 +2.1272012279e+01 -6.6549967361e+02 7.2905246933e+02 2.0000000000e+02 0.0000e+00 1.0000e+00
<mgrwt>
<rscale>  0 0.60224305E+03</rscale>
<asrwt>0</asrwt>
<pdfrwt beam="2">  1        1 0.25247656E+00 0.60224305E+03</pdfrwt>
<pdfrwt beam="1">  1       -1 0.85003309E-02 0.60224305E+03</pdfrwt>
<totfact> 0.43933020E+02</totfact>
</mgrwt>
</event>
<event>
 4      1 +1.5204000e-02 5.59455600e+02 7.81860800e-03 9.99328700e-02
       -2 -1    0    0    0  501 -0.0000000000e+00 +0.0000000000e+00 +1.2787389077e+02 1.2787389077e+02 0.0000000000e+00 0.0000e+00 1.0000e+00
        2 -1    0    0  501    0 +0.0000000000e+00 -0.0000000000e+00 -6.1191250133e+02 6.1191250133e+02 0.0000000000e+00 0.0000e+00 -1.0000e+00
     -556  1    1    2    0    0 +3.8822965653e+01 +7.8597446039e+01 -4.7319260571e+02 5.2114875351e+02 2.0000000000e+02 0.0000e+00 -1.0000e+00
      556  1    1    2    0    0 -3.8822965653e+01 -7.8597446039e+01 -1.0846004852e+01 2.1863763859e+02 2.0000000000e+02 0.0000e+00 1.0000e+00
<mgrwt>
<rscale>  0 0.55945557E+03</rscale>
<asrwt>0</asrwt>
<pdfrwt beam="2">  1        2 0.94140385E-01 0.55945557E+03</pdfrwt>
<pdfrwt beam="1">  1       -2 0.19672906E-01 0.55945557E+03</pdfrwt>
<totfact> 0.10670541E+03</totfact>
</mgrwt>
</event>
<event>
 4      1 +1.5204000e-02 6.12761700e+02 7.81860800e-03 9.87927800e-02
       -2 -1    0    0    0  501 -0.0000000000e+00 +0.0000000000e+00 +4.5628439214e+01 4.5628439214e+01 0.0000000000e+00 0.0000e+00 -1.0000e+00
        2 -1    0    0  501    0 +0.0000000000e+00 -0.0000000000e+00 -2.0572526421e+03 2.0572526421e+03 0.0000000000e+00 0.0000e+00 1.0000e+00
     -556  1    1    2    0    0 +2.2344118131e+02 +2.7396152800e+01 -1.1997234698e+03 1.2369369081e+03 2.0000000000e+02 0.0000e+00 1.0000e+00
      556  1    1    2    0    0 -2.2344118131e+02 -2.7396152800e+01 -8.1190073311e+02 8.6594417321e+02 2.0000000000e+02 0.0000e+00 -1.0000e+00
<mgrwt>
<rscale>  0 0.61276171E+03</rscale>
<asrwt>0</asrwt>
<pdfrwt beam="2">  1        2 0.31650043E+00 0.61276171E+03</pdfrwt>
<pdfrwt beam="1">  1       -2 0.70197594E-02 0.61276171E+03</pdfrwt>
<totfact> 0.77815497E+02</totfact>
</mgrwt>
</event>
<event>
 4      1 +1.5204000e-02 7.86905500e+02 7.81860800e-03 9.57916700e-02
        1 -1    0    0  501    0 +0.0000000000e+00 +0.0000000000e+00 +7.8187818400e+02 7.8187818400e+02 0.0000000000e+00 0.0000e+00 -1.0000e+00
       -1 -1    0    0    0  501 -0.0000000000e+00 -0.0000000000e+00 -1.9799129197e+02 1.9799129197e+02 0.0000000000e+00 0.0000e+00 1.0000e+00
     -556  1    1    2    0    0 -1.4033763657e+02 +1.8419749427e+02 -1.6060599221e+01 3.0640057438e+02 2.0000000000e+02 0.0000e+00 1.0000e+00
      556  1    1    2    0    0 +1.4033763657e+02 -1.8419749427e+02 +5.9994749126e+02 6.7346890159e+02 2.0000000000e+02 0.0000e+00 -1.0000e+00
<mgrwt>
<rscale>  0 0.78690551E+03</rscale>
<asrwt>0</asrwt>
<pdfrwt beam="1">  1        1 0.12028895E+00 0.78690551E+03</pdfrwt>
<pdfrwt beam="2">  1       -1 0.30460199E-01 0.78690551E+03</pdfrwt>
<totfact> 0.23013177E+02</totfact>
</mgrwt>
</event>
<event>
 4      1 +1.5204000e-02 6.50466100e+02 7.81860800e-03 9.80590500e-02
       -3 -1    0    0    0  501 -0.0000000000e+00 +0.0000000000e+00 +9.7174363568e+01 9.7174363568e+01 0.0000000000e+00 0.0000e+00 1.0000e+00
        3 -1    0    0  501    0 +0.0000000000e+00 -0.0000000000e+00 -1.0885229561e+03 1.0885229561e+03 0.0000000000e+00 0.0000e+00 -1.0000e+00
     -556  1    1    2    0    0 +1.6445249312e+00 -7.3590254140e+01 -9.4350893023e+02 9.6727831123e+02 2.0000000000e+02 0.0000e+00 -1.0000e+00
      556  1    1    2    0    0 -1.6445249312e+00 +7.3590254140e+01 -4.7839662337e+01 2.1841900847e+02 2.0000000000e+02 0.0000e+00 1.0000e+00
<mgrwt>
<rscale>  0 0.65046607E+03</rscale>
<asrwt>0</asrwt>
<pdfrwt beam="2">  1        3 0.16746506E+00 0.65046607E+03</pdfrwt>
<pdfrwt beam="1">  1       -3 0.14949903E-01 0.65046607E+03</pdfrwt>
<totfact> 0.24691200E+01</totfact>
</mgrwt>
</event>
<event>
 4      1 +1.5204000e-02 7.65766200e+02 7.81860800e-03 9.61093500e-02
        2 -1    0    0  501    0 +0.0000000000e+00 +0.0000000000e+00 +1.7046743446e+03 1.7046743446e+03 0.0000000000e+00 0.0000e+00 -1.0000e+00
       -2 -1    0    0    0  501 -0.0000000000e+00 -0.0000000000e+00 -8.5998524668e+01 8.5998524668e+01 0.0000000000e+00 0.0000e+00 1.0000e+00
     -556  1    1    2    0    0 -2.8009820682e+02 -5.8503517636e+01 +1.1770096001e+03 1.2276926593e+03 2.0000000000e+02 0.0000e+00 -1.0000e+00
      556  1    1    2    0    0 +2.8009820682e+02 +5.8503517636e+01 +4.4166621980e+02 5.6298020991e+02 2.0000000000e+02 0.0000e+00 1.0000e+00
<mgrwt>
<rscale>  0 0.76576623E+03</rscale>
<asrwt>0</asrwt>
<pdfrwt beam="1">  1        2 0.26225757E+00 0.76576623E+03</pdfrwt>
<pdfrwt beam="2">  1       -2 0.13230543E-01 0.76576623E+03</pdfrwt>
<totfact> 0.42838371E+02</totfact>
</mgrwt>
</event>
<event>
 4      1 +1.5204000e-02 5.41511900e+02 7.81860800e-03 1.00347800e-01
        1 -1    0    0  501    0 +0.0000000000e+00 +0.0000000000e+00 +3.2348434567e+02 3.2348434567e+02 0.0000000000e+00 0.0000e+00 -1.0000e+00
       -1 -1    0    0    0  501 -0.0000000000e+00 -0.0000000000e+00 -2.2662236604e+02 2.2662236604e+02 0.0000000000e+00 0.0000e+00 1.0000e+00
     -556  1    1    2    0    0 -7.9275871085e+01 +3.6638351890e+01 +2.1122982010e+02 3.0371873413e+02 2.0000000000e+02 0.0000e+00 -1.0000e+00
      556  1    1    2    0    0 +7.9275871085e+01 -3.6638351890e+01 -1.1436784047e+02 2.4638797758e+02 2.0000000000e+02 0.0000e+00 1.0000e+00
<mgrwt>
<rscale>  0 0.54151191E+03</rscale>
<asrwt>0</asrwt>
<pdfrwt beam="1">  1        1 0.49766822E-01 0.54151191E+03</pdfrwt>
<pdfrwt beam="2">  1       -1 0.34864979E-01 0.54151191E+03</pdfrwt>
<totfact> 0.62615773E+02</totfact>
</mgrwt>
</event>
<event>
 4      1 +1.5204000e-02 5.08357600e+02 7.81860800e-03 1.01162000e-01
        2 -1    0    0  501    0 +0.0000000000e+00 +0.0000000000e+00 +1.8336362086e+03 1.8336362086e+03 0.0000000000e+00 0.0000e+00 -1.0000e+00
       -2 -1    0    0    0  501 -0.0000000000e+00 -0.0000000000e+00 -3.5234288614e+01 3.5234288614e+01 0.0000000000e+00 0.0000e+00 1.0000e+00
     -556  1    1    2    0    0 +8.4896089166e+01 -7.8531997539e+01 +5.0957921315e+02 5.5950477662e+02 2.0000000000e+02 0.0000e+00 1.0000e+00
      556  1    1    2    0    0 -8.4896089166e+01 +7.8531997539e+01 +1.2888227068e+03 1.3093657206e+03 2.0000000000e+02 0.0000e+00 -1.0000e+00
<mgrwt>
<rscale>  0 0.50835762E+03</rscale>
<asrwt>0</asrwt>
<pdfrwt beam="1">  1        2 0.28209780E+00 0.50835762E+03</pdfrwt>
<pdfrwt beam="2">  1       -2 0.54206612E-02 0.50835762E+03</pdfrwt>
<totfact> 0.15505269E+03</totfact>
</mgrwt>
</event>
<event>
 4      1 +1.5204000e-02 9.24980500e+02 7.81860800e-03 9.39488200e-02
        1 -1    0    0  501    0 +0.0000000000e+00 +0.0000000000e+00 +1.2067186150e+03 1.2067186150e+03 0.0000000000e+00 0.0000e+00 -1.0000e+00
       -1 -1    0    0    0  501 -0.0000000000e+00 -0.0000000000e+00 -1.7725526342e+02 1.7725526342e+02 0.0000000000e+00 0.0000e+00 1.0000e+00
     -556  1    1    2    0    0 +1.6842298562e+02 +2.3324132894e+02 +6.3058195521e+01 3.5601145436e+02 2.0000000000e+02 0.0000e+00 1.0000e+00
      556  1    1    2    0    0 -1.6842298562e+02 -2.3324132894e+02 +9.6640515607e+02 1.0279624241e+03 2.0000000000e+02 0.0000e+00 -1.0000e+00
<mgrwt>
<rscale>  0 0.92498049E+03</rscale>
<asrwt>0</asrwt>
<pdfrwt beam="1">  1        1 0.18564901E+00 0.92498049E+03</pdfrwt>
<pdfrwt beam="2">  1       -1 0.27270041E-01 0.92498049E+03</pdfrwt>
<totfact> 0.12805682E+02</totfact>
</mgrwt>
</event>
<event>
 4      1 +1.5204000e-02 1.14704800e+03 7.81860800e-03 9.16051200e-02
       -1 -1    0    0    0  501 -0.0000000000e+00 +0.0000000000e+00 +2.3526574091e+02 2.3526574091e+02 0.0000000000e+00 0.0000e+00 1.0000e+00
        1 -1    0    0  501    0 +0.0000000000e+00 -0.0000000000e+00 -1.3981190877e+03 1.3981190877e+03 0.0000000000e+00 0.0000e+00 -1.0000e+00
     -556  1    1    2    0    0 +2.7788938575e+02 +1.6479259227e+02 +3.0310125013e+01 3.8117950214e+02 2.0000000000e+02 0.0000e+00 1.0000e+00
      556  1    1    2    0    0 -2.7788938575e+02 -1.6479259227e+02 -1.1931634718e+03 1.2522053264e+03 2.0000000000e+02 0.0000e+00 -1.0000e+00
<mgrwt>
<rscale>  0 0.11470476E+04</rscale>
<asrwt>0</asrwt>
<pdfrwt beam="2">  1        1 0.21509525E+00 0.11470476E+04</pdfrwt>
<pdfrwt beam="1">  1       -1 0.36194728E-01 0.11470476E+04</pdfrwt>
<totfact> 0.55895144E+01</totfact>
</mgrwt>
</event>
<event>
 4      1 +1.5204000e-02 5.47570700e+02 7.81860800e-03 1.00205800e-01
       -2 -1    0    0    0  501 -0.0000000000e+00 +0.0000000000e+00 +9.9689537480e+01 9.9689537480e+01 0.0000000000e+00 0.0000e+00 1.0000e+00
        2 -1    0    0  501    0 +0.0000000000e+00 -0.0000000000e+00 -7.5191859500e+02 7.5191859500e+02 0.0000000000e+00 0.0000e+00 -1.0000e+00
     -556  1    1    2    0    0 +7.2677204197e+01 -4.4343299318e+01 -6.7222458834e+01 2.2752398374e+02 2.0000000000e+02 0.0000e+00 1.0000e+00
      556  1    1    2    0    0 -7.2677204197e+01 +4.4343299318e+01 -5.8500659869e+02 6.2408414874e+02 2.0000000000e+02 0.0000e+00 -1.0000e+00
<mgrwt>
<rscale>  0 0.54757070E+03</rscale>
<asrwt>0</asrwt>
<pdfrwt beam="2">  1        2 0.11567979E+00 0.54757070E+03</pdfrwt>
<pdfrwt beam="1">  1       -2 0.15336851E-01 0.54757070E+03</pdfrwt>
<totfact> 0.12656981E+03</totfact>
</mgrwt>
</event>
<event>
 4      1 +1.5204000e-02 4.57104600e+02 7.81860800e-03 1.02562400e-01
       -1 -1    0    0    0  501 -0.0000000000e+00 +0.0000000000e+00 +1.8555175964e+02 1.8555175964e+02 0.0000000000e+00 0.0000e+00 1.0000e+00
        1 -1    0    0  501    0 +0.0000000000e+00 -0.0000000000e+00 -2.8151798259e+02 2.8151798259e+02 0.0000000000e+00 0.0000e+00 -1.0000e+00
     -556  1    1    2    0    0 -1.9517332975e+01 +1.0862976988e+02 -5.5547462295e+01 2.3508907622e+02 2.0000000000e+02 0.0000e+00 1.0000e+00
      556  1    1    2    0    0 +1.9517332975e+01 -1.0862976988e+02 -4.0418760652e+01 2.3198066601e+02 2.0000000000e+02 0.0000e+00 -1.0000e+00
<mgrwt>
<rscale>  0 0.45710461E+03</rscale>
<asrwt>0</asrwt>
<pdfrwt beam="2">  1        1 0.43310459E-01 0.45710461E+03</pdfrwt>
<pdfrwt beam="1">  1       -1 0.28546424E-01 0.45710461E+03</pdfrwt>
<totfact> 0.10610323E+03</totfact>
</mgrwt>
</event>
<event>
 4      1 +1.5204000e-02 5.30374700e+02 7.81860800e-03 1.00614100e-01
        2 -1    0    0  501    0 +0.0000000000e+00 +0.0000000000e+00 +4.8876125762e+02 4.8876125762e+02 0.0000000000e+00 0.0000e+00 -1.0000e+00
       -2 -1    0    0    0  501 -0.0000000000e+00 -0.0000000000e+00 -1.4388276936e+02 1.4388276936e+02 0.0000000000e+00 0.0000e+00 1.0000e+00
     -556  1    1    2    0    0 -1.6679565127e+02 +8.4728557152e+00 +1.1361780746e+02 2.8425619561e+02 2.0000000000e+02 0.0000e+00 1.0000e+00
      556  1    1    2    0    0 +1.6679565127e+02 -8.4728557152e+00 +2.3126068080e+02 3.4838783138e+02 2.0000000000e+02 0.0000e+00 -1.0000e+00
<mgrwt>
<rscale>  0 0.53037467E+03</rscale>
<asrwt>0</asrwt>
<pdfrwt beam="1">  1        2 0.75194039E-01 0.53037467E+03</pdfrwt>
<pdfrwt beam="2">  1       -2 0.22135811E-01 0.53037467E+03</pdfrwt>
<totfact> 0.11295447E+03</totfact>
</mgrwt>
</event>
<event>
 4      1 +1.5204000e-02 8.03585000e+02 7.81860800e-03 9.55484200e-02
       -1 -1    0    0    0  501 -0.0000000000e+00 +0.0000000000e+00 +2.8768170191e+02 2.8768170191e+02 0.0000000000e+00 0.0000e+00 1.0000e+00
        1 -1    0    0  501    0 +0.0000000000e+00 -0.0000000000e+00 -5.6116608143e+02 5.6116608143e+02 0.0000000000e+00 0.0000e+00 -1.0000e+00
     -556  1    1    2    0    0 +1.5960257904e+02 -1.5986184192e+02 +1.4354955136e+02 3.3411863976e+02 2.0000000000e+02 0.0000e+00 1.0000e+00
      556  1    1    2    0    0 -1.5960257904e+02 +1.5986184192e+02 -4.1703393089e+02 5.1472914358e+02 2.0000000000e+02 0.0000e+00 -1.0000e+00
<mgrwt>
<rscale>  0 0.80358500E+03</rscale>
<asrwt>0</asrwt>
<pdfrwt beam="2">  1        1 0.86333243E-01 0.80358500E+03</pdfrwt>
<pdfrwt beam="1">  1       -1 0.44258723E-01 0.80358500E+03</pdfrwt>
<totfact> 0.19253199E+02</totfact>
</mgrwt>
</event>
<event>
 4      1 +1.5204000e-02 6.92557900e+02 7.81860800e-03 9.73004400e-02
       -4 -1    0    0    0  501 -0.0000000000e+00 +0.0000000000e+00 +2.6030347930e+02 2.6030347930e+02 0.0000000000e+00 0.0000e+00 1.0000e+00
        4 -1    0    0  501    0 +0.0000000000e+00 -0.0000000000e+00 -4.6065120217e+02 4.6065120217e+02 0.0000000000e+00 0.0000e+00 -1.0000e+00
     -556  1    1    2    0    0 +2.7086667168e+02 -2.6159374730e+01 -2.0511340859e+01 3.3833974318e+02 2.0000000000e+02 0.0000e+00 -1.0000e+00
      556  1    1    2    0    0 -2.7086667168e+02 +2.6159374730e+01 -1.7983638201e+02 3.8261493829e+02 2.0000000000e+02 0.0000e+00 1.0000e+00
<mgrwt>
<rscale>  0 0.69255790E+03</rscale>
<asrwt>0</asrwt>
<pdfrwt beam="2">  1        4 0.70869416E-01 0.69255790E+03</pdfrwt>
<pdfrwt beam="1">  1       -4 0.40046689E-01 0.69255790E+03</pdfrwt>
<totfact> 0.21977415E+01</totfact>
</mgrwt>
</event>
<event>
 4      1 +1.5204000e-02 7.56709700e+02 7.81860800e-03 9.62488200e-02
        1 -1    0    0  501    0 +0.0000000000e+00 +0.0000000000e+00 +6.3333178772e+02 6.3333178772e+02 0.0000000000e+00 0.0000e+00 -1.0000e+00
       -1 -1    0    0    0  501 -0.0000000000e+00 -0.0000000000e+00 -2.2603066891e+02 2.2603066891e+02 0.0000000000e+00 0.0000e+00 1.0000e+00
     -556  1    1    2    0    0 +1.6999319734e+01 -5.7174022398e+01 +5.6204797175e+02 5.9954630201e+02 2.0000000000e+02 0.0000e+00 -1.0000e+00
      556  1    1    2    0    0 -1.6999319734e+01 +5.7174022398e+01 -1.5474685294e+02 2.5981615462e+02 2.0000000000e+02 0.0000e+00 1.0000e+00
<mgrwt>
<rscale>  0 0.75670974E+03</rscale>
<asrwt>0</asrwt>
<pdfrwt beam="1">  1        1 0.97435659E-01 0.75670974E+03</pdfrwt>
<pdfrwt beam="2">  1       -1 0.34773949E-01 0.75670974E+03</pdfrwt>
<totfact> 0.25123555E+02</totfact>
</mgrwt>
</event>
<event>
 4      1 +1.5204000e-02 4.49411700e+02 7.81860800e-03 1.02789800e-01
        2 -1    0    0  501    0 +0.0000000000e+00 +0.0000000000e+00 +1.4345329411e+03 1.4345329411e+03 0.0000000000e+00 0.0000e+00 -1.0000e+00
       -2 -1    0    0    0  501 -0.0000000000e+00 -0.0000000000e+00 -3.5198017299e+01 3.5198017299e+01 0.0000000000e+00 0.0000e+00 1.0000e+00
     -556  1    1    2    0    0 +6.9272525389e-01 -9.7136318084e+01 +5.9335505483e+02 6.3364514142e+02 2.0000000000e+02 0.0000e+00 1.0000e+00
      556  1    1    2    0    0 -6.9272525389e-01 +9.7136318084e+01 +8.0597986901e+02 8.3608581701e+02 2.0000000000e+02 0.0000e+00 -1.0000e+00
<mgrwt>
<rscale>  0 0.44941168E+03</rscale>
<asrwt>0</asrwt>
<pdfrwt beam="1">  1        2 0.22069733E+00 0.44941168E+03</pdfrwt>
<pdfrwt beam="2">  1       -2 0.54150807E-02 0.44941168E+03</pdfrwt>
<totfact> 0.25610435E+03</totfact>
</mgrwt>
</event>
<event>
 4      1 +1.5204000e-02 7.93412600e+02 7.81860800e-03 9.56960100e-02
       -2 -1    0    0    0  501 -0.0000000000e+00 +0.0000000000e+00 +4.4265479669e+02 4.4265479669e+02 0.0000000000e+00 0.0000e+00 1.0000e+00
        2 -1    0    0  501    0 +0.0000000000e+00 -0.0000000000e+00 -3.5552737363e+02 3.5552737363e+02 0.0000000000e+00 0.0000e+00 -1.0000e+00
     -556  1    1    2    0    0 +9.9269295580e+01 -1.1905488092e+02 -2.6380108306e+02 3.6553996928e+02 2.0000000000e+02 0.0000e+00 -1.0000e+00
      556  1    1    2    0    0 -9.9269295580e+01 +1.1905488092e+02 +3.5092850612e+02 4.3264220104e+02 2.0000000000e+02 0.0000e+00 1.0000e+00
<mgrwt>
<rscale>  0 0.79341262E+03</rscale>
<asrwt>0</asrwt>
<pdfrwt beam="2">  1        2 0.54696519E-01 0.79341262E+03</pdfrwt>
<pdfrwt beam="1">  1       -2 0.68100738E-01 0.79341262E+03</pdfrwt>
<totfact> 0.18064408E+02</totfact>
</mgrwt>
</event>
<event>
 4      1 +1.5204000e-02 7.06777700e+02 7.81860800e-03 9.70571100e-02
        2 -1    0    0  501    0 +0.0000000000e+00 +0.0000000000e+00 +4.4730233923e+02 4.4730233923e+02 0.0000000000e+00 0.0000e+00 -1.0000e+00
       -2 -1    0    0    0  501 -0.0000000000e+00 -0.0000000000e+00 -2.7919303017e+02 2.7919303017e+02 0.0000000000e+00 0.0000e+00 1.0000e+00
     -556  1    1    2    0    0 +1.7059656861e+02 -4.2259679801e+01 +3.2290465783e+02 4.1851701017e+02 2.0000000000e+02 0.0000e+00 -1.0000e+00
      556  1    1    2    0    0 -1.7059656861e+02 +4.2259679801e+01 -1.5479534876e+02 3.0797835923e+02 2.0000000000e+02 0.0000e+00 1.0000e+00
<mgrwt>
<rscale>  0 0.70677775E+03</rscale>
<asrwt>0</asrwt>
<pdfrwt beam="1">  1        2 0.68815745E-01 0.70677775E+03</pdfrwt>
<pdfrwt beam="2">  1       -2 0.42952774E-01 0.70677775E+03</pdfrwt>
<totfact> 0.36287362E+02</totfact>
</mgrwt>
</event>
<event>
 4      1 +1.5204000e-02 8.60132300e+02 7.81860800e-03 9.47683800e-02
       -2 -1    0    0    0  501 -0.0000000000e+00 +0.0000000000e+00 +8.2675871089e+02 8.2675871089e+02 0.0000000000e+00 0.0000e+00 1.0000e+00
        2 -1    0    0  501    0 +0.0000000000e+00 -0.0000000000e+00 -2.2371328124e+02 2.2371328124e+02 0.0000000000e+00 0.0000e+00 -1.0000e+00
     -556  1    1    2    0    0 +7.2477441446e+01 -3.7360505088e+02 +2.8796745870e+02 5.1745431763e+02 2.0000000000e+02 0.0000e+00 1.0000e+00
      556  1    1    2    0    0 -7.2477441446e+01 +3.7360505088e+02 +3.1507797094e+02 5.3301767451e+02 2.0000000000e+02 0.0000e+00 -1.0000e+00
<mgrwt>
<rscale>  0 0.86013232E+03</rscale>
<asrwt>0</asrwt>
<pdfrwt beam="2">  1        2 0.34417428E-01 0.86013232E+03</pdfrwt>
<pdfrwt beam="1">  1       -2 0.12719365E+00 0.86013232E+03</pdfrwt>
<totfact> 0.70281792E+01</totfact>
</mgrwt>
</event>
<event>
 4      1 +1.5204000e-02 4.68330900e+02 7.81860800e-03 1.02239200e-01
       -4 -1    0    0    0  501 -0.0000000000e+00 +0.0000000000e+00 +4.1852834374e+02 4.1852834374e+02 0.0000000000e+00 0.0000e+00 1.0000e+00
        4 -1    0    0  501    0 +0.0000000000e+00 -0.0000000000e+00 -1.3101491429e+02 1.3101491429e+02 0.0000000000e+00 0.0000e+00 -1.0000e+00
     -556  1    1    2    0    0 +6.5661888499e+01 -4.1496563017e+01 +2.5383219397e+02 3.3236159682e+02 2.0000000000e+02 0.0000e+00 1.0000e+00
      556  1    1    2    0    0 -6.5661888499e+01 +4.1496563017e+01 +3.3681235480e+01 2.1718166121e+02 2.0000000000e+02 0.0000e+00 -1.0000e+00
<mgrwt>
<rscale>  0 0.46833089E+03</rscale>
<asrwt>0</asrwt>
<pdfrwt beam="2">  1        4 0.20156141E-01 0.46833089E+03</pdfrwt>
<pdfrwt beam="1">  1       -4 0.64388975E-01 0.46833089E+03</pdfrwt>
<totfact> 0.99214484E+01</totfact>
</mgrwt>
</event>
<event>
 4      1 +1.5204000e-02 6.45600700e+02 7.81860800e-03 9.81506900e-02
       -1 -1    0    0    0  501 -0.0000000000e+00 +0.0000000000e+00 +1.5352139992e+02 1.5352139992e+02 0.0000000000e+00 0.0000e+00 1.0000e+00
        1 -1    0    0  501    0 +0.0000000000e+00 -0.0000000000e+00 -6.7873325420e+02 6.7873325420e+02 0.0000000000e+00 0.0000e+00 -1.0000e+00
     -556  1    1    2    0    0 +1.0866633782e+02 -1.2186559910e+02 -1.2834856768e+01 2.5850402466e+02 2.0000000000e+02 0.0000e+00 1.0000e+00
      556  1    1    2    0    0 -1.0866633782e+02 +1.2186559910e+02 -5.1237699751e+02 5.7375062945e+02 2.0000000000e+02 0.0000e+00 -1.0000e+00
<mgrwt>
<rscale>  0 0.64560074E+03</rscale>
<asrwt>0</asrwt>
<pdfrwt beam="2">  1        1 0.10442050E+00 0.64560074E+03</pdfrwt>
<pdfrwt beam="1">  1       -1 0.23618677E-01 0.64560074E+03</pdfrwt>
<totfact> 0.44548205E+02</totfact>
</mgrwt>
</event>
<event>
 4      1 +1.5204000e-02 7.74628800e+02 7.81860800e-03 9.59748500e-02
        2 -1    0    0  501    0 +0.0000000000e+00 +0.0000000000e+00 +2.7802641265e+03 2.7802641265e+03 0.0000000000e+00 0.0000e+00 -1.0000e+00
       -2 -1    0    0    0  501 -0.0000000000e+00 -0.0000000000e+00 -5.3956184988e+01 5.3956184988e+01 0.0000000000e+00 0.0000e+00 1.0000e+00
     -556  1    1    2    0    0 -1.3110983360e+02 +2.2238714008e+02 +6.0121929810e+02 6.8418599295e+02 2.0000000000e+02 0.0000e+00 1.0000e+00
      556  1    1    2    0    0 +1.3110983360e+02 -2.2238714008e+02 +2.1250886434e+03 2.1500343185e+03 2.0000000000e+02 0.0000e+00 -1.0000e+00
<mgrwt>
<rscale>  0 0.77462880E+03</rscale>
<asrwt>0</asrwt>
<pdfrwt beam="1">  1        2 0.42773283E+00 0.77462880E+03</pdfrwt>
<pdfrwt beam="2">  1       -2 0.83009537E-02 0.77462880E+03</pdfrwt>
<totfact> 0.23026928E+02</totfact>
</mgrwt>
</event>
<event>
 4      1 +1.5204000e-02 4.71130400e+02 7.81860800e-03 1.02160200e-01
       -2 -1    0    0    0  501 -0.0000000000e+00 +0.0000000000e+00 +4.7951089101e+01 4.7951089101e+01 0.0000000000e+00 0.0000e+00 -1.0000e+00
        2 -1    0    0  501    0 +0.0000000000e+00 -0.0000000000e+00 -1.1572410643e+03 1.1572410643e+03 0.0000000000e+00 0.0000e+00 1.0000e+00
     -556  1    1    2    0    0 +5.9981297698e+01 +1.0810884434e+02 -5.1795708519e+02 5.6882758407e+02 2.0000000000e+02 0.0000e+00 -1.0000e+00
      556  1    1    2    0    0 -5.9981297698e+01 -1.0810884434e+02 -5.9133289005e+02 6.3636456937e+02 2.0000000000e+02 0.0000e+00 1.0000e+00
<mgrwt>
<rscale>  0 0.47113043E+03</rscale>
<asrwt>0</asrwt>
<pdfrwt beam="2">  1        2 0.17803709E+00 0.47113043E+03</pdfrwt>
<pdfrwt beam="1">  1       -2 0.73770906E-02 0.47113043E+03</pdfrwt>
<totfact> 0.22702839E+03</totfact>
</mgrwt>
</event>
<event>
 4      1 +1.5204000e-02 6.34865500e+02 7.81860800e-03 9.83560000e-02
        2 -1    0    0  501    0 +0.0000000000e+00 +0.0000000000e+00 +3.2155725180e+02 3.2155725180e+02 0.0000000000e+00 0.0000e+00 -1.0000e+00
       -2 -1    0    0    0  501 -0.0000000000e+00 -0.0000000000e+00 -3.1336115138e+02 3.1336115138e+02 0.0000000000e+00 0.0000e+00 1.0000e+00
     -556  1    1    2    0    0 -2.2345833285e+02 +3.3923774094e+01 -9.4292573741e+01 3.1618908652e+02 2.0000000000e+02 0.0000e+00 -1.0000e+00
      556  1    1    2    0    0 +2.2345833285e+02 -3.3923774094e+01 +1.0248867416e+02 3.1872931666e+02 2.0000000000e+02 0.0000e+00 1.0000e+00
<mgrwt>
<rscale>  0 0.63486550E+03</rscale>
<asrwt>0</asrwt>
<pdfrwt beam="1">  1        2 0.49470347E-01 0.63486550E+03</pdfrwt>
<pdfrwt beam="2">  1       -2 0.48209408E-01 0.63486550E+03</pdfrwt>
<totfact> 0.41790974E+02</totfact>
</mgrwt>
</event>
<event>
 4      1 +1.5204000e-02 5.61650700e+02 7.81860800e-03 9.98832700e-02
       -2 -1    0    0    0  501 -0.0000000000e+00 +0.0000000000e+00 +1.2344337316e+02 1.2344337316e+02 0.0000000000e+00 0.0000e+00 1.0000e+00
        2 -1    0    0  501    0 +0.0000000000e+00 -0.0000000000e+00 -6.3885870651e+02 6.3885870651e+02 0.0000000000e+00 0.0000e+00 -1.0000e+00
     -556  1    1    2    0    0 +1.2011967296e+02 +5.7572137158e+01 -6.0463794741e+01 2.4778853340e+02 2.0000000000e+02 0.0000e+00 1.0000e+00
      556  1    1    2    0    0 -1.2011967296e+02 -5.7572137158e+01 -4.5495153861e+02 5.1451354626e+02 2.0000000000e+02 0.0000e+00 -1.0000e+00
<mgrwt>
<rscale>  0 0.56165069E+03</rscale>
<asrwt>0</asrwt>
<pdfrwt beam="2">  1        2 0.98285954E-01 0.56165069E+03</pdfrwt>
<pdfrwt beam="1">  1       -2 0.18991288E-01 0.56165069E+03</pdfrwt>
<totfact> 0.10766925E+03</totfact>
</mgrwt>
</event>
<event>
 4      1 +1.5204000e-02 4.35717300e+02 7.81860800e-03 1.03206900e-01
        1 -1    0    0  501    0 +0.0000000000e+00 +0.0000000000e+00 +1.2419891900e+03 1.2419891900e+03 0.0000000000e+00 0.0000e+00 -1.0000e+00
       -1 -1    0    0    0  501 -0.0000000000e+00 -0.0000000000e+00 -3.8214815814e+01 3.8214815814e+01 0.0000000000e+00 0.0000e+00 1.0000e+00
     -556  1    1    2    0    0 -2.8875944182e+01 -3.7781769005e+01 +8.1378293501e+02 8.3934733427e+02 2.0000000000e+02 0.0000e+00 -1.0000e+00
      556  1    1    2    0    0 +2.8875944182e+01 +3.7781769005e+01 +3.8999143918e+02 4.4085667156e+02 2.0000000000e+02 0.0000e+00 1.0000e+00
<mgrwt>
<rscale>  0 0.43571729E+03</rscale>
<asrwt>0</asrwt>
<pdfrwt beam="1">  1        1 0.19107523E+00 0.43571729E+03</pdfrwt>
<pdfrwt beam="2">  1       -1 0.58792034E-02 0.43571729E+03</pdfrwt>
<totfact> 0.14696252E+03</totfact>
</mgrwt>
</event>
<event>
 4      1 +1.5204000e-02 6.26188600e+02 7.81860800e-03 9.85251500e-02
        2 -1    0    0  501    0 +0.0000000000e+00 +0.0000000000e+00 +3.1663290335e+02 3.1663290335e+02 0.0000000000e+00 0.0000e+00 -1.0000e+00
       -2 -1    0    0    0  501 -0.0000000000e+00 -0.0000000000e+00 -3.0959520176e+02 3.0959520176e+02 0.0000000000e+00 0.0000e+00 1.0000e+00
     -556  1    1    2    0    0 -1.6981443886e+02 +3.1398366508e+01 -1.6443587300e+02 3.1122653710e+02 2.0000000000e+02 0.0000e+00 1.0000e+00
      556  1    1    2    0    0 +1.6981443886e+02 -3.1398366508e+01 +1.7147357459e+02 3.1500156801e+02 2.0000000000e+02 0.0000e+00 -1.0000e+00
<mgrwt>
<rscale>  0 0.62618856E+03</rscale>
<asrwt>0</asrwt>
<pdfrwt beam="1">  1        2 0.48712754E-01 0.62618856E+03</pdfrwt>
<pdfrwt beam="2">  1       -2 0.47630031E-01 0.62618856E+03</pdfrwt>
<totfact> 0.43566639E+02</totfact>
</mgrwt>
</event>
<event>
 4      1 +1.5204000e-02 5.78428700e+02 7.81860800e-03 9.95119900e-02
        1 -1    0    0  501    0 +0.0000000000e+00 +0.0000000000e+00 +2.5901192452e+03 2.5901192452e+03 0.0000000000e+00 0.0000e+00 -1.0000e+00
       -1 -1    0    0    0  501 -0.0000000000e+00 -0.0000000000e+00 -3.2293852172e+01 3.2293852172e+01 0.0000000000e+00 0.0000e+00 1.0000e+00
     -556  1    1    2    0    0 +2.3268634615e+01 +4.3293927345e+01 +2.1994754790e+03 2.2090966878e+03 2.0000000000e+02 0.0000e+00 -1.0000e+00
      556  1    1    2    0    0 -2.3268634615e+01 -4.3293927345e+01 +3.5834991401e+02 4.1331640951e+02 2.0000000000e+02 0.0000e+00 1.0000e+00
<mgrwt>
<rscale>  0 0.57842866E+03</rscale>
<asrwt>0</asrwt>
<pdfrwt beam="1">  1        1 0.39847972E+00 0.57842866E+03</pdfrwt>
<pdfrwt beam="2">  1       -1 0.49682870E-02 0.57842866E+03</pdfrwt>
<totfact> 0.23377558E+02</totfact>
</mgrwt>
</event>
<event>
 4      1 +1.5204000e-02 5.64422900e+02 7.81860800e-03 9.98209600e-02
        1 -1    0    0  501    0 +0.0000000000e+00 +0.0000000000e+00 +4.7078813880e+02 4.7078813880e+02 0.0000000000e+00 0.0000e+00 -1.0000e+00
       -1 -1    0    0    0  501 -0.0000000000e+00 -0.0000000000e+00 -1.6917014021e+02 1.6917014021e+02 0.0000000000e+00 0.0000e+00 1.0000e+00
     -556  1    1    2    0    0 -1.7861254529e+02 +3.2757034043e+01 +5.8224274109e+01 2.7634313943e+02 2.0000000000e+02 0.0000e+00 1.0000e+00
      556  1    1    2    0    0 +1.7861254529e+02 -3.2757034043e+01 +2.4339372448e+02 3.6361513958e+02 2.0000000000e+02 0.0000e+00 -1.0000e+00
<mgrwt>
<rscale>  0 0.56442287E+03</rscale>
<asrwt>0</asrwt>
<pdfrwt beam="1">  1        1 0.72428944E-01 0.56442287E+03</pdfrwt>
<pdfrwt beam="2">  1       -1 0.26026176E-01 0.56442287E+03</pdfrwt>
<totfact> 0.63463748E+02</totfact>
</mgrwt>
</event>
<event>
 4      1 +1.5204000e-02 7.09778700e+02 7.81860800e-03 9.70065400e-02
        2 -1    0    0  501    0 +0.0000000000e+00 +0.0000000000e+00 +4.7777578797e+02 4.7777578797e+02 0.0000000000e+00 0.0000e+00 -1.0000e+00
       -2 -1    0    0    0  501 -0.0000000000e+00 -0.0000000000e+00 -2.6360997307e+02 2.6360997307e+02 0.0000000000e+00 0.0000e+00 1.0000e+00
     -556  1    1    2    0    0 -5.2261735728e+01 -2.2722928881e+02 -7.8544131430e+01 3.1707036963e+02 2.0000000000e+02 0.0000e+00 1.0000e+00
      556  1    1    2    0    0 +5.2261735728e+01 +2.2722928881e+02 +2.9270994632e+02 4.2431539141e+02 2.0000000000e+02 0.0000e+00 -1.0000e+00
<mgrwt>
<rscale>  0 0.70977873E+03</rscale>
<asrwt>0</asrwt>
<pdfrwt beam="1">  1        2 0.73503968E-01 0.70977873E+03</pdfrwt>
<pdfrwt beam="2">  1       -2 0.40555380E-01 0.70977873E+03</pdfrwt>
<totfact> 0.37665104E+02</totfact>
</mgrwt>
</event>
<event>
 4      1 +1.5204000e-02 7.55864400e+02 7.81860800e-03 9.62619500e-02
        2 -1    0    0  501    0 +0.0000000000e+00 +0.0000000000e+00 +5.2458543230e+02 5.2458543230e+02 0.0000000000e+00 0.0000e+00 1.0000e+00
       -2 -1    0    0    0  501 -0.0000000000e+00 -0.0000000000e+00 -2.7227734885e+02 2.7227734885e+02 0.0000000000e+00 0.0000e+00 -1.0000e+00
     -556  1    1    2    0    0 -2.1179667500e+02 +2.4028605248e+02 +1.0990668806e+02 3.9328704357e+02 2.0000000000e+02 0.0000e+00 -1.0000e+00
      556  1    1    2    0    0 +2.1179667500e+02 -2.4028605248e+02 +1.4240139539e+02 4.0357573758e+02 2.0000000000e+02 0.0000e+00 1.0000e+00
<mgrwt>
<rscale>  0 0.75586435E+03</rscale>
<asrwt>0</asrwt>
<pdfrwt beam="1">  1        2 0.80705451E-01 0.75586435E+03</pdfrwt>
<pdfrwt beam="2">  1       -2 0.41888823E-01 0.75586435E+03</pdfrwt>
<totfact> 0.31671679E+02</totfact>
</mgrwt>
</event>
<event>
 4      1 +1.5204000e-02 6.33470800e+02 7.81860800e-03 9.83829900e-02
       -1 -1    0    0    0  501 -0.0000000000e+00 +0.0000000000e+00 +3.0901341161e+02 3.0901341161e+02 0.0000000000e+00 0.0000e+00 1.0000e+00
        1 -1    0    0  501    0 +0.0000000000e+00 -0.0000000000e+00 -3.2465037033e+02 3.2465037033e+02 0.0000000000e+00 0.0000e+00 -1.0000e+00
     -556  1    1    2    0    0 +1.4412935883e+02 -1.1551708090e+02 -1.6974382391e+02 3.2082773230e+02 2.0000000000e+02 0.0000e+00 -1.0000e+00
      556  1    1    2    0    0 -1.4412935883e+02 +1.1551708090e+02 +1.5410686520e+02 3.1283604964e+02 2.0000000000e+02 0.0000e+00 1.0000e+00
<mgrwt>
<rscale>  0 0.63347082E+03</rscale>
<asrwt>0</asrwt>
<pdfrwt beam="2">  1        1 0.49946211E-01 0.63347082E+03</pdfrwt>
<pdfrwt beam="1">  1       -1 0.47540525E-01 0.63347082E+03</pdfrwt>
<totfact> 0.35389909E+02</totfact>
</mgrwt>
</event>
<event>
 4      1 +1.5204000e-02 8.03762900e+02 7.81860800e-03 9.55458600e-02
       -1 -1    0    0    0  501 -0.0000000000e+00 +0.0000000000e+00 +2.5996353577e+02 2.5996353577e+02 0.0000000000e+00 0.0000e+00 1.0000e+00
        1 -1    0    0  501    0 +0.0000000000e+00 -0.0000000000e+00 -6.2127445807e+02 6.2127445807e+02 0.0000000000e+00 0.0000e+00 -1.0000e+00
     -556  1    1    2    0    0 +1.0286579092e+02 -1.9857059785e+02 +1.1250764627e+02 3.2042101014e+02 2.0000000000e+02 0.0000e+00 1.0000e+00
      556  1    1    2    0    0 -1.0286579092e+02 +1.9857059785e+02 -4.7381856857e+02 5.6081698369e+02 2.0000000000e+02 0.0000e+00 -1.0000e+00
<mgrwt>
<rscale>  0 0.80376291E+03</rscale>
<asrwt>0</asrwt>
<pdfrwt beam="2">  1        1 0.95580686E-01 0.80376291E+03</pdfrwt>
<pdfrwt beam="1">  1       -1 0.39994390E-01 0.80376291E+03</pdfrwt>
<totfact> 0.20041984E+02</totfact>
</mgrwt>
</event>
<event>
 4      1 +1.5204000e-02 1.53833800e+03 7.81860800e-03 8.85935100e-02
        2 -1    0    0  501    0 +0.0000000000e+00 +0.0000000000e+00 +6.2564641384e+02 6.2564641384e+02 0.0000000000e+00 0.0000e+00 -1.0000e+00
       -2 -1    0    0    0  501 -0.0000000000e+00 -0.0000000000e+00 -9.4561538427e+02 9.4561538427e+02 0.0000000000e+00 0.0000e+00 1.0000e+00
     -556  1    1    2    0    0 +3.9211338390e+02 +1.9465902902e+02 -7.7280526471e+02 9.1042463751e+02 2.0000000000e+02 0.0000e+00 1.0000e+00
      556  1    1    2    0    0 -3.9211338390e+02 -1.9465902902e+02 +4.5283629429e+02 6.6083716060e+02 2.0000000000e+02 0.0000e+00 -1.0000e+00
<mgrwt>
<rscale>  0 0.15383379E+04</rscale>
<asrwt>0</asrwt>
<pdfrwt beam="1">  1        2 0.96253294E-01 0.15383379E+04</pdfrwt>
<pdfrwt beam="2">  1       -2 0.14547929E+00 0.15383379E+04</pdfrwt>
<totfact> 0.14740561E+01</totfact>
</mgrwt>
</event>
<event>
 4      1 +1.5204000e-02 8.84275200e+02 7.81860800e-03 9.44545400e-02
        2 -1    0    0  501    0 +0.0000000000e+00 +0.0000000000e+00 +1.6048231705e+03 1.6048231705e+03 0.0000000000e+00 0.0000e+00 1.0000e+00
       -2 -1    0    0    0  501 -0.0000000000e+00 -0.0000000000e+00 -1.2181133698e+02 1.2181133698e+02 0.0000000000e+00 0.0000e+00 -1.0000e+00
     -556  1    1    2    0    0 -1.1466290930e+01 +2.8662554187e+02 +2.1322070878e+02 4.0957141957e+02 2.0000000000e+02 0.0000e+00 -1.0000e+00
      556  1    1    2    0    0 +1.1466290930e+01 -2.8662554187e+02 +1.2697911247e+03 1.3170630879e+03 2.0000000000e+02 0.0000e+00 1.0000e+00
<mgrwt>
<rscale>  0 0.88427520E+03</rscale>
<asrwt>0</asrwt>
<pdfrwt beam="1">  1        2 0.24689586E+00 0.88427520E+03</pdfrwt>
<pdfrwt beam="2">  1       -2 0.18740207E-01 0.88427520E+03</pdfrwt>
<totfact> 0.26667923E+02</totfact>
</mgrwt>
</event>
<event>
 4      1 +1.5204000e-02 8.19808200e+02 7.81860800e-03 9.53178000e-02
       -2 -1    0    0    0  501 -0.0000000000e+00 +0.0000000000e+00 +1.0453568371e+02 1.0453568371e+02 0.0000000000e+00 0.0000e+00 1.0000e+00
        2 -1    0    0  501    0 +0.0000000000e+00 -0.0000000000e+00 -1.6073113297e+03 1.6073113297e+03 0.0000000000e+00 0.0000e+00 -1.0000e+00
     -556  1    1    2    0    0 +9.0579935911e+01 -2.2249712310e+02 -1.9769811598e+02 3.6985705298e+02 2.0000000000e+02 0.0000e+00 -1.0000e+00
      556  1    1    2    0    0 -9.0579935911e+01 +2.2249712310e+02 -1.3050775300e+03 1.3419899605e+03 2.0000000000e+02 0.0000e+00 1.0000e+00
<mgrwt>
<rscale>  0 0.81980824E+03</rscale>
<asrwt>0</asrwt>
<pdfrwt beam="2">  1        2 0.24727865E+00 0.81980824E+03</pdfrwt>
<pdfrwt beam="1">  1       -2 0.16082414E-01 0.81980824E+03</pdfrwt>
<totfact> 0.34736161E+02</totfact>
</mgrwt>
</event>
<event>
 4      1 +1.5204000e-02 4.24346700e+02 7.81860800e-03 1.03566100e-01
        2 -1    0    0  501    0 +0.0000000000e+00 +0.0000000000e+00 +2.6087139433e+02 2.6087139433e+02 0.0000000000e+00 0.0000e+00 -1.0000e+00
       -2 -1    0    0    0  501 -0.0000000000e+00 -0.0000000000e+00 -1.7256599197e+02 1.7256599197e+02 0.0000000000e+00 0.0000e+00 1.0000e+00
     -556  1    1    2    0    0 -3.0594670195e+01 -1.8110908855e+01 -1.8425530809e+01 2.0396945617e+02 2.0000000000e+02 0.0000e+00 1.0000e+00
      556  1    1    2    0    0 +3.0594670195e+01 +1.8110908855e+01 +1.0673093317e+02 2.2946793013e+02 2.0000000000e+02 0.0000e+00 -1.0000e+00
<mgrwt>
<rscale>  0 0.42434670E+03</rscale>
<asrwt>0</asrwt>
<pdfrwt beam="1">  1        2 0.40134061E-01 0.42434670E+03</pdfrwt>
<pdfrwt beam="2">  1       -2 0.26548614E-01 0.42434670E+03</pdfrwt>
<totfact> 0.16369420E+03</totfact>
</mgrwt>
</event>
<event>
 4      1 +1.5204000e-02 6.35391100e+02 7.81860800e-03 9.83458400e-02
       -2 -1    0    0    0  501 -0.0000000000e+00 +0.0000000000e+00 +6.5128421741e+01 6.5128421741e+01 0.0000000000e+00 0.0000e+00 1.0000e+00
        2 -1    0    0  501    0 +0.0000000000e+00 -0.0000000000e+00 -1.5497147605e+03 1.5497147605e+03 0.0000000000e+00 0.0000e+00 -1.0000e+00
     -556  1    1    2    0    0 +3.7937738039e+01 -2.4173734660e+01 -1.2545386073e+02 2.4033791334e+02 2.0000000000e+02 0.0000e+00 1.0000e+00
      556  1    1    2    0    0 -3.7937738039e+01 +2.4173734660e+01 -1.3591324780e+03 1.3745052689e+03 2.0000000000e+02 0.0000e+00 -1.0000e+00
<mgrwt>
<rscale>  0 0.63539114E+03</rscale>
<asrwt>0</asrwt>
<pdfrwt beam="2">  1        2 0.23841767E+00 0.63539114E+03</pdfrwt>
<pdfrwt beam="1">  1       -2 0.10019756E-01 0.63539114E+03</pdfrwt>
<totfact> 0.82956012E+02</totfact>
</mgrwt>
</event>
<event>
 4      1 +1.5204000e-02 5.88449400e+02 7.81860800e-03 9.92966400e-02
        2 -1    0    0  501    0 +0.0000000000e+00 +0.0000000000e+00 +1.3222484673e+03 1.3222484673e+03 0.0000000000e+00 0.0000e+00 -1.0000e+00
       -2 -1    0    0    0  501 -0.0000000000e+00 -0.0000000000e+00 -6.5470423764e+01 6.5470423764e+01 0.0000000000e+00 0.0000e+00 1.0000e+00
     -556  1    1    2    0    0 +2.1250004035e+02 +2.9302183087e+01 +6.8385999919e+02 7.4409635369e+02 2.0000000000e+02 0.0000e+00 -1.0000e+00
      556  1    1    2    0    0 -2.1250004035e+02 -2.9302183087e+01 +5.7291804439e+02 6.4362253742e+02 2.0000000000e+02 0.0000e+00 1.0000e+00
<mgrwt>
<rscale>  0 0.58844938E+03</rscale>
<asrwt>0</asrwt>
<pdfrwt beam="1">  1        2 0.20342282E+00 0.58844938E+03</pdfrwt>
<pdfrwt beam="2">  1       -2 0.10072374E-01 0.58844938E+03</pdfrwt>
<totfact> 0.11043693E+03</totfact>
</mgrwt>
</event>
<event>
 4      1 +1.5204000e-02 6.31954800e+02 7.81860800e-03 9.84124200e-02
       -1 -1    0    0    0  501 -0.0000000000e+00 +0.0000000000e+00 +1.5773705358e+02 1.5773705358e+02 0.0000000000e+00 0.0000e+00 1.0000e+00
        1 -1    0    0  501    0 +0.0000000000e+00 -0.0000000000e+00 -6.3296292334e+02 6.3296292334e+02 0.0000000000e+00 0.0000e+00 -1.0000e+00
     -556  1    1    2    0    0 -7.2952608406e+01 -2.1757226315e+01 -5.2848934510e+02 5.7017229663e+02 2.0000000000e+02 0.0000e+00 -1.0000e+00
      556  1    1    2    0    0 +7.2952608406e+01 +2.1757226315e+01 +5.3263475331e+01 2.2052768029e+02 2.0000000000e+02 0.0000e+00 1.0000e+00
<mgrwt>
<rscale>  0 0.63195477E+03</rscale>
<asrwt>0</asrwt>
<pdfrwt beam="2">  1        1 0.97378912E-01 0.63195477E+03</pdfrwt>
<pdfrwt beam="1">  1       -1 0.24267239E-01 0.63195477E+03</pdfrwt>
<totfact> 0.47181866E+02</totfact>
</mgrwt>
</event>
<event>
 4      1 +1.5204000e-02 7.65033200e+02 7.81860800e-03 9.61205600e-02
        2 -1    0    0  501    0 +0.0000000000e+00 +0.0000000000e+00 +7.6161787121e+02 7.6161787121e+02 0.0000000000e+00 0.0000e+00 -1.0000e+00
       -2 -1    0    0    0  501 -0.0000000000e+00 -0.0000000000e+00 -1.9211598321e+02 1.9211598321e+02 0.0000000000e+00 0.0000e+00 1.0000e+00
     -556  1    1    2    0    0 -8.7578993676e+01 +4.4705275516e+01 +6.7231951285e+02 7.0829525563e+02 2.0000000000e+02 0.0000e+00 -1.0000e+00
      556  1    1    2    0    0 +8.7578993676e+01 -4.4705275516e+01 -1.0281762485e+02 2.4543859878e+02 2.0000000000e+02 0.0000e+00 1.0000e+00
<mgrwt>
<rscale>  0 0.76503324E+03</rscale>
<asrwt>0</asrwt>
<pdfrwt beam="1">  1        2 0.11717198E+00 0.76503324E+03</pdfrwt>
<pdfrwt beam="2">  1       -2 0.29556305E-01 0.76503324E+03</pdfrwt>
<totfact> 0.38948327E+02</totfact>
</mgrwt>
</event>
<event>
 4      1 +1.5204000e-02 4.74511800e+02 7.81860800e-03 1.02065400e-01
        1 -1    0    0  501    0 +0.0000000000e+00 +0.0000000000e+00 +1.7666141693e+02 1.7666141693e+02 0.0000000000e+00 0.0000e+00 -1.0000e+00
       -1 -1    0    0    0  501 -0.0000000000e+00 -0.0000000000e+00 -3.1863410520e+02 3.1863410520e+02 0.0000000000e+00 0.0000e+00 1.0000e+00
     -556  1    1    2    0    0 +1.8528094961e+00 +5.0781434807e+01 +5.1223753506e+01 2.1261716757e+02 2.0000000000e+02 0.0000e+00 -1.0000e+00
      556  1    1    2    0    0 -1.8528094961e+00 -5.0781434807e+01 -1.9319644178e+02 2.8267835456e+02 2.0000000000e+02 0.0000e+00 1.0000e+00
<mgrwt>
<rscale>  0 0.47451176E+03</rscale>
<asrwt>0</asrwt>
<pdfrwt beam="1">  1        1 0.27178680E-01 0.47451176E+03</pdfrwt>
<pdfrwt beam="2">  1       -1 0.49020631E-01 0.47451176E+03</pdfrwt>
<totfact> 0.73420774E+02</totfact>
</mgrwt>
</event>
<event>
 4      1 +1.5204000e-02 4.96474600e+02 7.81860800e-03 1.01470300e-01
        1 -1    0    0  501    0 +0.0000000000e+00 +0.0000000000e+00 +1.1540577056e+03 1.1540577056e+03 0.0000000000e+00 0.0000e+00 -1.0000e+00
       -1 -1    0    0    0  501 -0.0000000000e+00 -0.0000000000e+00 -5.3395727563e+01 5.3395727563e+01 0.0000000000e+00 0.0000e+00 1.0000e+00
     -556  1    1    2    0    0 +8.5496845921e+01 -1.1795329149e+02 +5.9891497398e+02 6.4801376197e+02 2.0000000000e+02 0.0000e+00 -1.0000e+00
      556  1    1    2    0    0 -8.5496845921e+01 +1.1795329149e+02 +5.0174700410e+02 5.5943967125e+02 2.0000000000e+02 0.0000e+00 1.0000e+00
<mgrwt>
<rscale>  0 0.49647457E+03</rscale>
<asrwt>0</asrwt>
<pdfrwt beam="1">  1        1 0.17754732E+00 0.49647457E+03</pdfrwt>
<pdfrwt beam="2">  1       -1 0.82147282E-02 0.49647457E+03</pdfrwt>
<totfact> 0.10121441E+03</totfact>
</mgrwt>
</event>
<event>
 4      1 +1.5204000e-02 6.70103600e+02 7.81860800e-03 9.76977100e-02
        1 -1    0    0  501    0 +0.0000000000e+00 +0.0000000000e+00 +9.7221624491e+02 9.7221624491e+02 0.0000000000e+00 0.0000e+00 -1.0000e+00
       -1 -1    0    0    0  501 -0.0000000000e+00 -0.0000000000e+00 -1.1546782231e+02 1.1546782231e+02 0.0000000000e+00 0.0000e+00 1.0000e+00
     -556  1    1    2    0    0 +8.7655514160e+01 -2.2767237989e+02 +6.1159340636e+02 6.8816037115e+02 2.0000000000e+02 0.0000e+00 1.0000e+00
      556  1    1    2    0    0 -8.7655514160e+01 +2.2767237989e+02 +2.4515501624e+02 3.9952369606e+02 2.0000000000e+02 0.0000e+00 -1.0000e+00
<mgrwt>
<rscale>  0 0.67010355E+03</rscale>
<asrwt>0</asrwt>
<pdfrwt beam="1">  1        1 0.14957172E+00 0.67010355E+03</pdfrwt>
<pdfrwt beam="2">  1       -1 0.17764281E-01 0.67010355E+03</pdfrwt>
<totfact> 0.40160804E+02</totfact>
</mgrwt>
</event>
<event>
 4      1 +1.5204000e-02 4.72448900e+02 7.81860800e-03 1.02123100e-01
       -2 -1    0    0    0  501 -0.0000000000e+00 +0.0000000000e+00 +3.7503840072e+01 3.7503840072e+01 0.0000000000e+00 0.0000e+00 1.0000e+00
        2 -1    0    0  501    0 +0.0000000000e+00 -0.0000000000e+00 -1.4879006935e+03 1.4879006935e+03 0.0000000000e+00 0.0000e+00 -1.0000e+00
     -556  1    1    2    0    0 -6.8698058894e+01 -3.3260619594e+01 -4.0270943701e+02 4.5607080894e+02 2.0000000000e+02 0.0000e+00 1.0000e+00
      556  1    1    2    0    0 +6.8698058894e+01 +3.3260619594e+01 -1.0476874164e+03 1.0693337247e+03 2.0000000000e+02 0.0000e+00 -1.0000e+00
<mgrwt>
<rscale>  0 0.47244890E+03</rscale>
<asrwt>0</asrwt>
<pdfrwt beam="2">  1        2 0.22890779E+00 0.47244890E+03</pdfrwt>
<pdfrwt beam="1">  1       -2 0.57698219E-02 0.47244890E+03</pdfrwt>
<totfact> 0.21682327E+03</totfact>
</mgrwt>
</event>
<event>
 4      1 +1.5204000e-02 8.14391900e+02 7.81860800e-03 9.53941600e-02
        2 -1    0    0  501    0 +0.0000000000e+00 +0.0000000000e+00 +1.1482950915e+03 1.1482950915e+03 0.0000000000e+00 0.0000e+00 1.0000e+00
       -2 -1    0    0    0  501 -0.0000000000e+00 -0.0000000000e+00 -1.4439541232e+02 1.4439541232e+02 0.0000000000e+00 0.0000e+00 -1.0000e+00
     -556  1    1    2    0    0 +1.6052878415e+02 +9.3398479074e+01 +2.2289268850e+01 2.7384225010e+02 2.0000000000e+02 0.0000e+00 -1.0000e+00
      556  1    1    2    0    0 -1.6052878415e+02 -9.3398479074e+01 +9.8161041038e+02 1.0188482538e+03 2.0000000000e+02 0.0000e+00 1.0000e+00
<mgrwt>
<rscale>  0 0.81439190E+03</rscale>
<asrwt>0</asrwt>
<pdfrwt beam="1">  1        2 0.17666078E+00 0.81439190E+03</pdfrwt>
<pdfrwt beam="2">  1       -2 0.22214680E-01 0.81439190E+03</pdfrwt>
<totfact> 0.36248110E+02</totfact>
</mgrwt>
</event>
<event>
 4      1 +1.5204000e-02 5.26357400e+02 7.81860800e-03 1.00711900e-01
       -1 -1    0    0    0  501 -0.0000000000e+00 +0.0000000000e+00 +1.5432674601e+02 1.5432674601e+02 0.0000000000e+00 0.0000e+00 1.0000e+00
        1 -1    0    0  501    0 +0.0000000000e+00 -0.0000000000e+00 -4.4880760746e+02 4.4880760746e+02 0.0000000000e+00 0.0000e+00 -1.0000e+00
     -556  1    1    2    0    0 +1.1247403381e+02 +2.8709044672e+01 -3.2603450528e+00 2.3126877735e+02 2.0000000000e+02 0.0000e+00 1.0000e+00
      556  1    1    2    0    0 -1.1247403381e+02 -2.8709044672e+01 -2.9122051640e+02 3.7186557612e+02 2.0000000000e+02 0.0000e+00 -1.0000e+00
<mgrwt>
<rscale>  0 0.52635736E+03</rscale>
<asrwt>0</asrwt>
<pdfrwt beam="2">  1        1 0.69047324E-01 0.52635736E+03</pdfrwt>
<pdfrwt beam="1">  1       -1 0.23742577E-01 0.52635736E+03</pdfrwt>
<totfact> 0.79111785E+02</totfact>
</mgrwt>
</event>
<event>
 4      1 +1.5204000e-02 4.20325800e+02 7.81860800e-03 1.03696000e-01
        1 -1    0    0  501    0 +0.0000000000e+00 +0.0000000000e+00 +1.3607198564e+02 1.3607198564e+02 0.0000000000e+00 0.0000e+00 -1.0000e+00
       -1 -1    0    0    0  501 -0.0000000000e+00 -0.0000000000e+00 -3.2459613915e+02 3.2459613915e+02 0.0000000000e+00 0.0000e+00 1.0000e+00
     -556  1    1    2    0    0 +2.5165328837e+01 +2.2303476115e+00 -1.5937993729e+02 2.5698294230e+02 2.0000000000e+02 0.0000e+00 1.0000e+00
      556  1    1    2    0    0 -2.5165328837e+01 -2.2303476115e+00 -2.9144216231e+01 2.0368518249e+02 2.0000000000e+02 0.0000e+00 -1.0000e+00
<mgrwt>
<rscale>  0 0.42032578E+03</rscale>
<asrwt>0</asrwt>
<pdfrwt beam="1">  1        1 0.20934152E-01 0.42032578E+03</pdfrwt>
<pdfrwt beam="2">  1       -1 0.49937867E-01 0.42032578E+03</pdfrwt>
<totfact> 0.99509415E+02</totfact>
</mgrwt>
</event>
<event>
 4      1 +1.5204000e-02 7.38718500e+02 7.81860800e-03 9.65321700e-02
        2 -1    0    0  501    0 +0.0000000000e+00 +0.0000000000e+00 +1.4625820743e+03 1.4625820743e+03 0.0000000000e+00 0.0000e+00 -1.0000e+00
       -2 -1    0    0    0  501 -0.0000000000e+00 -0.0000000000e+00 -9.3277666437e+01 9.3277666437e+01 0.0000000000e+00 0.0000e+00 1.0000e+00
     -556  1    1    2    0    0 -9.0956946401e+01 +2.7027815915e+02 +4.2581891581e+02 5.5013198278e+02 2.0000000000e+02 0.0000e+00 1.0000e+00
      556  1    1    2    0    0 +9.0956946401e+01 -2.7027815915e+02 +9.4348549201e+02 1.0057277579e+03 2.0000000000e+02 0.0000e+00 -1.0000e+00
<mgrwt>
<rscale>  0 0.73871847E+03</rscale>
<asrwt>0</asrwt>
<pdfrwt beam="1">  1        2 0.22501261E+00 0.73871847E+03</pdfrwt>
<pdfrwt beam="2">  1       -2 0.14350411E-01 0.73871847E+03</pdfrwt>
<totfact> 0.50943692E+02</totfact>
</mgrwt>
</event>
<event>
 4      1 +1.5204000e-02 4.58479600e+02 7.81860800e-03 1.02522300e-01
       -1 -1    0    0    0  501 -0.0000000000e+00 +0.0000000000e+00 +4.0991716608e+02 4.0991716608e+02 0.0000000000e+00 0.0000e+00 1.0000e+00
        1 -1    0    0  501    0 +0.0000000000e+00 -0.0000000000e+00 -1.2819879440e+02 1.2819879440e+02 0.0000000000e+00 0.0000e+00 -1.0000e+00
     -556  1    1    2    0    0 +7.7362071509e+01 -1.2248641976e+01 +4.6846400348e+01 2.1983972472e+02 2.0000000000e+02 0.0000e+00 -1.0000e+00
      556  1    1    2    0    0 -7.7362071509e+01 +1.2248641976e+01 +2.3487197133e+02 3.1827623577e+02 2.0000000000e+02 0.0000e+00 1.0000e+00
<mgrwt>
<rscale>  0 0.45847960E+03</rscale>
<asrwt>0</asrwt>
<pdfrwt beam="2">  1        1 0.19722892E-01 0.45847960E+03</pdfrwt>
<pdfrwt beam="1">  1       -1 0.63064179E-01 0.45847960E+03</pdfrwt>
<totfact> 0.68719768E+02</totfact>
</mgrwt>
</event>
<event>
 4      1 +1.5204000e-02 7.16567600e+02 7.81860800e-03 9.68931200e-02
       -1 -1    0    0    0  501 -0.0000000000e+00 +0.0000000000e+00 +4.5217738632e+02 4.5217738632e+02 0.0000000000e+00 0.0000e+00 1.0000e+00
        1 -1    0    0  501    0 +0.0000000000e+00 -0.0000000000e+00 -2.8388697088e+02 2.8388697088e+02 0.0000000000e+00 0.0000e+00 -1.0000e+00
     -556  1    1    2    0    0 -2.1909927631e+02 +6.0689982755e+01 +2.8087510062e+02 4.1301160884e+02 2.0000000000e+02 0.0000e+00 1.0000e+00
      556  1    1    2    0    0 +2.1909927631e+02 -6.0689982755e+01 -1.1258468518e+02 3.2305274836e+02 2.0000000000e+02 0.0000e+00 -1.0000e+00
<mgrwt>
<rscale>  0 0.71656756E+03</rscale>
<asrwt>0</asrwt>
<pdfrwt beam="2">  1        1 0.43674919E-01 0.71656756E+03</pdfrwt>
<pdfrwt beam="1">  1       -1 0.69565752E-01 0.71656756E+03</pdfrwt>
<totfact> 0.19975414E+02</totfact>
</mgrwt>
</event>
<event>
 4      1 +1.5204000e-02 1.09091800e+03 7.81860800e-03 9.21408900e-02
        1 -1    0    0  501    0 +0.0000000000e+00 +0.0000000000e+00 +2.2668825544e+03 2.2668825544e+03 0.0000000000e+00 0.0000e+00 -1.0000e+00
       -1 -1    0    0    0  501 -0.0000000000e+00 -0.0000000000e+00 -1.3124887650e+02 1.3124887650e+02 0.0000000000e+00 0.0000e+00 1.0000e+00
     -556  1    1    2    0    0 -4.0265605137e+01 +4.6266931673e+02 +1.5174772766e+03 1.5995066429e+03 2.0000000000e+02 0.0000e+00 -1.0000e+00
      556  1    1    2    0    0 +4.0265605137e+01 -4.6266931673e+02 +6.1815640135e+02 7.9862478807e+02 2.0000000000e+02 0.0000e+00 1.0000e+00
<mgrwt>
<rscale>  0 0.10909185E+04</rscale>
<asrwt>0</asrwt>
<pdfrwt beam="1">  1        1 0.34875113E+00 0.10909185E+04</pdfrwt>
<pdfrwt beam="2">  1       -1 0.20192136E-01 0.10909185E+04</pdfrwt>
<totfact> 0.39592962E+01</totfact>
</mgrwt>
</event>
<event>
 4      1 +1.5204000e-02 6.91882400e+02 7.81860800e-03 9.73121600e-02
        1 -1    0    0  501    0 +0.0000000000e+00 +0.0000000000e+00 +8.7374412997e+02 8.7374412997e+02 0.0000000000e+00 0.0000e+00 -1.0000e+00
       -1 -1    0    0    0  501 -0.0000000000e+00 -0.0000000000e+00 -1.3696839395e+02 1.3696839395e+02 0.0000000000e+00 0.0000e+00 1.0000e+00
     -556  1    1    2    0    0 -6.4496428171e+01 -2.7423787838e+02 +3.9407193638e+02 5.2407909158e+02 2.0000000000e+02 0.0000e+00 1.0000e+00
      556  1    1    2    0    0 +6.4496428171e+01 +2.7423787838e+02 +3.4270379964e+02 4.8663343234e+02 2.0000000000e+02 0.0000e+00 -1.0000e+00
<mgrwt>
<rscale>  0 0.69188245E+03</rscale>
<asrwt>0</asrwt>
<pdfrwt beam="1">  1        1 0.13442217E+00 0.69188245E+03</pdfrwt>
<pdfrwt beam="2">  1       -1 0.21072061E-01 0.69188245E+03</pdfrwt>
<totfact> 0.36252270E+02</totfact>
</mgrwt>
</event>
<event>
 4      1 +1.5204000e-02 4.41505200e+02 7.81860800e-03 1.03028600e-01
        4 -1    0    0  501    0 +0.0000000000e+00 +0.0000000000e+00 +1.5115259633e+02 1.5115259633e+02 0.0000000000e+00 0.0000e+00 -1.0000e+00
       -4 -1    0    0    0  501 -0.0000000000e+00 -0.0000000000e+00 -3.2240071749e+02 3.2240071749e+02 0.0000000000e+00 0.0000e+00 1.0000e+00
     -556  1    1    2    0    0 -2.5632143179e+01 +1.9531730045e+01 -1.7970180148e+02 2.7079740157e+02 2.0000000000e+02 0.0000e+00 1.0000e+00
      556  1    1    2    0    0 +2.5632143179e+01 -1.9531730045e+01 +8.4536803148e+00 2.0275591225e+02 2.0000000000e+02 0.0000e+00 -1.0000e+00
<mgrwt>
<rscale>  0 0.44150518E+03</rscale>
<asrwt>0</asrwt>
<pdfrwt beam="1">  1        4 0.23254246E-01 0.44150518E+03</pdfrwt>
<pdfrwt beam="2">  1       -4 0.49600110E-01 0.44150518E+03</pdfrwt>
<totfact> 0.13181277E+02</totfact>
</mgrwt>
</event>
<event>
 4      1 +1.5204000e-02 5.31559200e+02 7.81860800e-03 1.00585500e-01
       -2 -1    0    0    0  501 -0.0000000000e+00 +0.0000000000e+00 +4.6708201700e+01 4.6708201700e+01 0.0000000000e+00 0.0000e+00 1.0000e+00
        2 -1    0    0  501    0 +0.0000000000e+00 -0.0000000000e+00 -1.5123424033e+03 1.5123424033e+03 0.0000000000e+00 0.0000e+00 -1.0000e+00
     -556  1    1    2    0    0 -3.4647994992e+01 -1.9200342993e+01 -1.2328844904e+03 1.2496292664e+03 2.0000000000e+02 0.0000e+00 -1.0000e+00
      556  1    1    2    0    0 +3.4647994992e+01 +1.9200342993e+01 -2.3274971120e+02 3.0942133861e+02 2.0000000000e+02 0.0000e+00 1.0000e+00
<mgrwt>
<rscale>  0 0.53155919E+03</rscale>
<asrwt>0</asrwt>
<pdfrwt beam="2">  1        2 0.23266807E+00 0.53155919E+03</pdfrwt>
<pdfrwt beam="1">  1       -2 0.71858771E-02 0.53155919E+03</pdfrwt>
<totfact> 0.14877342E+03</totfact>
</mgrwt>
</event>
<event>
 4      1 +1.5204000e-02 1.18426900e+03 7.81860800e-03 9.12673900e-02
        1 -1    0    0  501    0 +0.0000000000e+00 +0.0000000000e+00 +4.7594748024e+02 4.7594748024e+02 0.0000000000e+00 0.0000e+00 -1.0000e+00
       -1 -1    0    0    0  501 -0.0000000000e+00 -0.0000000000e+00 -7.3668439609e+02 7.3668439609e+02 0.0000000000e+00 0.0000e+00 1.0000e+00
     -556  1    1    2    0    0 +4.1906564784e+02 +3.3319618192e+02 +2.8219440142e+01 5.7221678553e+02 2.0000000000e+02 0.0000e+00 -1.0000e+00
      556  1    1    2    0    0 -4.1906564784e+02 -3.3319618192e+02 -2.8895635600e+02 6.4041509079e+02 2.0000000000e+02 0.0000e+00 1.0000e+00
<mgrwt>
<rscale>  0 0.11842687E+04</rscale>
<asrwt>0</asrwt>
<pdfrwt beam="1">  1        1 0.73222690E-01 0.11842687E+04</pdfrwt>
<pdfrwt beam="2">  1       -1 0.11333606E+00 0.11842687E+04</pdfrwt>
<totfact> 0.33423592E+01</totfact>
</mgrwt>
</event>
<event>
 4      1 +1.5204000e-02 5.18626200e+02 7.81860800e-03 1.00902800e-01
        2 -1    0    0  501    0 +0.0000000000e+00 +0.0000000000e+00 +1.5537302393e+02 1.5537302393e+02 0.0000000000e+00 0.0000e+00 -1.0000e+00
       -2 -1    0    0    0  501 -0.0000000000e+00 -0.0000000000e+00 -4.3278615906e+02 4.3278615906e+02 0.0000000000e+00 0.0000e+00 1.0000e+00
     -556  1    1    2    0    0 -2.0903119486e+01 +1.1405623513e+02 -2.7191786392e+02 3.5691047882e+02 2.0000000000e+02 0.0000e+00 1.0000e+00
      556  1    1    2    0    0 +2.0903119486e+01 -1.1405623513e+02 -5.4952712172e+00 2.3124870417e+02 2.0000000000e+02 0.0000e+00 -1.0000e+00
<mgrwt>
<rscale>  0 0.51862624E+03</rscale>
<asrwt>0</asrwt>
<pdfrwt beam="1">  1        2 0.23903542E-01 0.51862624E+03</pdfrwt>
<pdfrwt beam="2">  1       -2 0.66582485E-01 0.51862624E+03</pdfrwt>
<totfact> 0.48255616E+02</totfact>
</mgrwt>
</event>
<event>
 4      1 +1.5204000e-02 4.90404500e+02 7.81860800e-03 1.01631400e-01
       -1 -1    0    0    0  501 -0.0000000000e+00 +0.0000000000e+00 +1.9873729361e+03 1.9873729361e+03 0.0000000000e+00 0.0000e+00 1.0000e+00
        1 -1    0    0  501    0 +0.0000000000e+00 -0.0000000000e+00 -3.0253070479e+01 3.0253070479e+01 0.0000000000e+00 0.0000e+00 -1.0000e+00
     -556  1    1    2    0    0 +9.8801158894e+01 +6.6579492518e+01 +6.6174892591e+02 7.0150277175e+02 2.0000000000e+02 0.0000e+00 -1.0000e+00
      556  1    1    2    0    0 -9.8801158894e+01 -6.6579492518e+01 +1.2953709397e+03 1.3161232348e+03 2.0000000000e+02 0.0000e+00 1.0000e+00
<mgrwt>
<rscale>  0 0.49040446E+03</rscale>
<asrwt>0</asrwt>
<pdfrwt beam="2">  1        1 0.46543201E-02 0.49040446E+03</pdfrwt>
<pdfrwt beam="1">  1       -1 0.30574958E+00 0.49040446E+03</pdfrwt>
<totfact> 0.63558123E+01</totfact>
</mgrwt>
</event>
<event>
 4      1 +1.5204000e-02 9.55904100e+02 7.81860800e-03 9.35827600e-02
        1 -1    0    0  501    0 +0.0000000000e+00 +0.0000000000e+00 +3.5412893627e+02 3.5412893627e+02 0.0000000000e+00 0.0000e+00 -1.0000e+00
       -1 -1    0    0    0  501 -0.0000000000e+00 -0.0000000000e+00 -6.4507053591e+02 6.4507053591e+02 0.0000000000e+00 0.0000e+00 1.0000e+00
     -556  1    1    2    0    0 -8.5378313559e+01 +9.3494219054e+01 -5.7949704229e+02 6.2597719403e+02 2.0000000000e+02 0.0000e+00 1.0000e+00
      556  1    1    2    0    0 +8.5378313559e+01 -9.3494219054e+01 +2.8855544265e+02 3.7322227815e+02 2.0000000000e+02 0.0000e+00 -1.0000e+00
<mgrwt>
<rscale>  0 0.95590406E+03</rscale>
<asrwt>0</asrwt>
<pdfrwt beam="1">  1        1 0.54481376E-01 0.95590406E+03</pdfrwt>
<pdfrwt beam="2">  1       -1 0.99241619E-01 0.95590406E+03</pdfrwt>
<totfact> 0.68781422E+01</totfact>
</mgrwt>
</event>
<event>
 4      1 +1.5204000e-02 7.12951700e+02 7.81860800e-03 9.69533600e-02
       -2 -1    0    0    0  501 -0.0000000000e+00 +0.0000000000e+00 +1.6669796289e+02 1.6669796289e+02 0.0000000000e+00 0.0000e+00 1.0000e+00
        2 -1    0    0  501    0 +0.0000000000e+00 -0.0000000000e+00 -7.6230714210e+02 7.6230714210e+02 0.0000000000e+00 0.0000e+00 -1.0000e+00
     -556  1    1    2    0    0 -5.9734289539e+01 +3.0015621449e+01 +7.6705534977e+01 2.2439443392e+02 2.0000000000e+02 0.0000e+00 1.0000e+00
      556  1    1    2    0    0 +5.9734289539e+01 -3.0015621449e+01 -6.7231471419e+02 7.0461067107e+02 2.0000000000e+02 0.0000e+00 -1.0000e+00
<mgrwt>
<rscale>  0 0.71295175E+03</rscale>
<asrwt>0</asrwt>
<pdfrwt beam="2">  1        2 0.11727802E+00 0.71295175E+03</pdfrwt>
<pdfrwt beam="1">  1       -2 0.25645840E-01 0.71295175E+03</pdfrwt>
<totfact> 0.50533968E+02</totfact>
</mgrwt>
</event>
<event>
 4      1 +1.5204000e-02 9.92682100e+02 7.81860800e-03 9.31660800e-02
        1 -1    0    0  501    0 +0.0000000000e+00 +0.0000000000e+00 +1.5128487753e+03 1.5128487753e+03 0.0000000000e+00 0.0000e+00 -1.0000e+00
       -1 -1    0    0    0  501 -0.0000000000e+00 -0.0000000000e+00 -1.6284140691e+02 1.6284140691e+02 0.0000000000e+00 0.0000e+00 1.0000e+00
     -556  1    1    2    0    0 +2.2448170119e+02 +2.6542382428e+02 +1.8137707975e+02 4.4015847796e+02 2.0000000000e+02 0.0000e+00 1.0000e+00
      556  1    1    2    0    0 -2.2448170119e+02 -2.6542382428e+02 +1.1686302886e+03 1.2355317042e+03 2.0000000000e+02 0.0000e+00 -1.0000e+00
<mgrwt>
<rscale>  0 0.99268207E+03</rscale>
<asrwt>0</asrwt>
<pdfrwt beam="1">  1        1 0.23274596E+00 0.99268207E+03</pdfrwt>
<pdfrwt beam="2">  1       -1 0.25052525E-01 0.99268207E+03</pdfrwt>
<totfact> 0.89727987E+01</totfact>
</mgrwt>
</event>
<event>
 4      1 +1.5204000e-02 7.17394800e+02 7.81860800e-03 9.68793900e-02
       -1 -1    0    0    0  501 -0.0000000000e+00 +0.0000000000e+00 +4.5693527422e+02 4.5693527422e+02 0.0000000000e+00 0.0000e+00 -1.0000e+00
        1 -1    0    0  501    0 +0.0000000000e+00 -0.0000000000e+00 -2.8157998394e+02 2.8157998394e+02 0.0000000000e+00 0.0000e+00 1.0000e+00
     -556  1    1    2    0    0 +7.8075377027e+01 +9.8305381135e+00 +3.8331069835e+02 4.3945363287e+02 2.0000000000e+02 0.0000e+00 -1.0000e+00
      556  1    1    2    0    0 -7.8075377027e+01 -9.8305381135e+00 -2.0795540806e+02 2.9906162529e+02 2.0000000000e+02 0.0000e+00 1.0000e+00
<mgrwt>
<rscale>  0 0.71739481E+03</rscale>
<asrwt>0</asrwt>
<pdfrwt beam="2">  1        1 0.43319997E-01 0.71739481E+03</pdfrwt>
<pdfrwt beam="1">  1       -1 0.70297735E-01 0.71739481E+03</pdfrwt>
<totfact> 0.19759323E+02</totfact>
</mgrwt>
</event>
<event>
 4      1 +1.5204000e-02 6.98185300e+02 7.81860800e-03 9.72034100e-02
       -1 -1    0    0    0  501 -0.0000000000e+00 +0.0000000000e+00 +2.7069656828e+02 2.7069656828e+02 0.0000000000e+00 0.0000e+00 1.0000e+00
        1 -1    0    0  501    0 +0.0000000000e+00 -0.0000000000e+00 -4.5019289768e+02 4.5019289768e+02 0.0000000000e+00 0.0000e+00 -1.0000e+00
     -556  1    1    2    0    0 -4.0395037025e-01 -6.1573764953e+01 -3.7825207711e+02 4.3228014706e+02 2.0000000000e+02 0.0000e+00 -1.0000e+00
      556  1    1    2    0    0 +4.0395037025e-01 +6.1573764953e+01 +1.9875574771e+02 2.8860931890e+02 2.0000000000e+02 0.0000e+00 1.0000e+00
<mgrwt>
<rscale>  0 0.69818528E+03</rscale>
<asrwt>0</asrwt>
<pdfrwt beam="2">  1        1 0.69260445E-01 0.69818528E+03</pdfrwt>
<pdfrwt beam="1">  1       -1 0.41645626E-01 0.69818528E+03</pdfrwt>
<totfact> 0.29314124E+02</totfact>
</mgrwt>
</event>
<event>
 4      1 +1.5204000e-02 5.95570600e+02 7.81860800e-03 9.91463900e-02
        2 -1    0    0  501    0 +0.0000000000e+00 +0.0000000000e+00 +2.9786540123e+03 2.9786540123e+03 0.0000000000e+00 0.0000e+00 -1.0000e+00
       -2 -1    0    0    0  501 -0.0000000000e+00 -0.0000000000e+00 -2.9770521348e+01 2.9770521348e+01 0.0000000000e+00 0.0000e+00 1.0000e+00
     -556  1    1    2    0    0 -2.0990796422e+02 +3.2112546806e+00 +1.8172041750e+03 1.8401909355e+03 2.0000000000e+02 0.0000e+00 -1.0000e+00
      556  1    1    2    0    0 +2.0990796422e+02 -3.2112546806e+00 +1.1316793159e+03 1.1682335981e+03 2.0000000000e+02 0.0000e+00 1.0000e+00
<mgrwt>
<rscale>  0 0.59557059E+03</rscale>
<asrwt>0</asrwt>
<pdfrwt beam="1">  1        2 0.45825423E+00 0.59557059E+03</pdfrwt>
<pdfrwt beam="2">  1       -2 0.45800826E-02 0.59557059E+03</pdfrwt>
<totfact> 0.45540230E+02</totfact>
</mgrwt>
</event>
<event>
 4      1 +1.5204000e-02 5.10828900e+02 7.81860800e-03 1.01099000e-01
       -1 -1    0    0    0  501 -0.0000000000e+00 +0.0000000000e+00 +6.4859675161e+02 6.4859675161e+02 0.0000000000e+00 0.0000e+00 1.0000e+00
        1 -1    0    0  501    0 +0.0000000000e+00 -0.0000000000e+00 -1.0058104075e+02 1.0058104075e+02 0.0000000000e+00 0.0000e+00 -1.0000e+00
     -556  1    1    2    0    0 +1.5611213807e+01 -1.5060493714e+02 +3.4451083511e+02 4.2616108761e+02 2.0000000000e+02 0.0000e+00 1.0000e+00
      556  1    1    2    0    0 -1.5611213807e+01 +1.5060493714e+02 +2.0350487575e+02 3.2301670474e+02 2.0000000000e+02 0.0000e+00 -1.0000e+00
<mgrwt>
<rscale>  0 0.51082888E+03</rscale>
<asrwt>0</asrwt>
<pdfrwt beam="2">  1        1 0.15474007E-01 0.51082888E+03</pdfrwt>
<pdfrwt beam="1">  1       -1 0.99784113E-01 0.51082888E+03</pdfrwt>
<totfact> 0.36032373E+02</totfact>
</mgrwt>
</event>
<event>
 4      1 +1.5204000e-02 1.08261800e+03 7.81860800e-03 9.22230100e-02
       -1 -1    0    0    0  501 -0.0000000000e+00 +0.0000000000e+00 +5.0290744353e+02 5.0290744353e+02 0.0000000000e+00 0.0000e+00 1.0000e+00
        1 -1    0    0  501    0 +0.0000000000e+00 -0.0000000000e+00 -5.8264254629e+02 5.8264254629e+02 0.0000000000e+00 0.0000e+00 -1.0000e+00
     -556  1    1    2    0    0 -4.5229083189e+02 +1.9405905920e+02 +6.4285623266e+01 5.3512480453e+02 2.0000000000e+02 0.0000e+00 1.0000e+00
      556  1    1    2    0    0 +4.5229083189e+02 -1.9405905920e+02 -1.4402072603e+02 5.5042518528e+02 2.0000000000e+02 0.0000e+00 -1.0000e+00
<mgrwt>
<rscale>  0 0.10826177E+04</rscale>
<asrwt>0</asrwt>
<pdfrwt beam="2">  1        1 0.89637315E-01 0.10826177E+04</pdfrwt>
<pdfrwt beam="1">  1       -1 0.77370376E-01 0.10826177E+04</pdfrwt>
<totfact> 0.59721376E+01</totfact>
</mgrwt>
</event>
<event>
 4      1 +1.5204000e-02 4.97418600e+02 7.81860800e-03 1.01445500e-01
        1 -1    0    0  501    0 +0.0000000000e+00 +0.0000000000e+00 +5.3439790124e+02 5.3439790124e+02 0.0000000000e+00 0.0000e+00 -1.0000e+00
       -1 -1    0    0    0  501 -0.0000000000e+00 -0.0000000000e+00 -1.1574956841e+02 1.1574956841e+02 0.0000000000e+00 0.0000e+00 1.0000e+00
     -556  1    1    2    0    0 +7.3300961549e+01 +1.0636570565e+02 +1.1534758588e+02 2.6455955827e+02 2.0000000000e+02 0.0000e+00 -1.0000e+00
      556  1    1    2    0    0 -7.3300961549e+01 -1.0636570565e+02 +3.0330074695e+02 3.8558791138e+02 2.0000000000e+02 0.0000e+00 1.0000e+00
<mgrwt>
<rscale>  0 0.49741864E+03</rscale>
<asrwt>0</asrwt>
<pdfrwt beam="1">  1        1 0.82215060E-01 0.49741864E+03</pdfrwt>
<pdfrwt beam="2">  1       -1 0.17807626E-01 0.49741864E+03</pdfrwt>
<totfact> 0.10067416E+03</totfact>
</mgrwt>
</event>
<event>
 4      1 +1.5204000e-02 6.31387600e+02 7.81860800e-03 9.84234500e-02
       -2 -1    0    0    0  501 -0.0000000000e+00 +0.0000000000e+00 +2.3293170451e+02 2.3293170451e+02 0.0000000000e+00 0.0000e+00 1.0000e+00
        2 -1    0    0  501    0 +0.0000000000e+00 -0.0000000000e+00 -4.2786181069e+02 4.2786181069e+02 0.0000000000e+00 0.0000e+00 -1.0000e+00
     -556  1    1    2    0    0 +1.8751058137e+02 -1.1962275843e+02 -2.0312626241e+02 3.6156617782e+02 2.0000000000e+02 0.0000e+00 -1.0000e+00
      556  1    1    2    0    0 -1.8751058137e+02 +1.1962275843e+02 +8.1961562360e+00 2.9922733738e+02 2.0000000000e+02 0.0000e+00 1.0000e+00
<mgrwt>
<rscale>  0 0.63138762E+03</rscale>
<asrwt>0</asrwt>
<pdfrwt beam="2">  1        2 0.65824893E-01 0.63138762E+03</pdfrwt>
<pdfrwt beam="1">  1       -2 0.35835647E-01 0.63138762E+03</pdfrwt>
<totfact> 0.54328722E+02</totfact>
</mgrwt>
</event>
<event>
 4      1 +1.5204000e-02 6.08664000e+02 7.81860800e-03 9.88759200e-02
       -1 -1    0    0    0  501 -0.0000000000e+00 +0.0000000000e+00 +6.9824049310e+02 6.9824049310e+02 0.0000000000e+00 0.0000e+00 1.0000e+00
        1 -1    0    0  501    0 +0.0000000000e+00 -0.0000000000e+00 -1.3264480251e+02 1.3264480251e+02 0.0000000000e+00 0.0000e+00 -1.0000e+00
     -556  1    1    2    0    0 -1.0219774710e+01 -2.1885724166e+02 +3.7553440984e+02 4.7856977443e+02 2.0000000000e+02 0.0000e+00 1.0000e+00
      556  1    1    2    0    0 +1.0219774710e+01 +2.1885724166e+02 +1.9006128075e+02 3.5231552118e+02 2.0000000000e+02 0.0000e+00 -1.0000e+00
<mgrwt>
<rscale>  0 0.60866402E+03</rscale>
<asrwt>0</asrwt>
<pdfrwt beam="2">  1        1 0.20406893E-01 0.60866402E+03</pdfrwt>
<pdfrwt beam="1">  1       -1 0.10742161E+00 0.60866402E+03</pdfrwt>
<totfact> 0.20988697E+02</totfact>
</mgrwt>
</event>
<event>
 4      1 +1.5204000e-02 5.06397900e+02 7.81860800e-03 1.01212200e-01
       -4 -1    0    0    0  501 -0.0000000000e+00 +0.0000000000e+00 +2.9900650273e+01 2.9900650273e+01 0.0000000000e+00 0.0000e+00 1.0000e+00
        4 -1    0    0  501    0 +0.0000000000e+00 -0.0000000000e+00 -2.1440908363e+03 2.1440908363e+03 0.0000000000e+00 0.0000e+00 -1.0000e+00
     -556  1    1    2    0    0 -1.4020592037e+01 +1.2895133582e+02 -6.9068168111e+02 7.3066148703e+02 2.0000000000e+02 0.0000e+00 1.0000e+00
      556  1    1    2    0    0 +1.4020592037e+01 -1.2895133582e+02 -1.4235085049e+03 1.4433299996e+03 2.0000000000e+02 0.0000e+00 -1.0000e+00
<mgrwt>
<rscale>  0 0.50639791E+03</rscale>
<asrwt>0</asrwt>
<pdfrwt beam="2">  1        4 0.32986007E+00 0.50639791E+03</pdfrwt>
<pdfrwt beam="1">  1       -4 0.46001008E-02 0.50639791E+03</pdfrwt>
<totfact> 0.12227960E+01</totfact>
</mgrwt>
</event>
<event>
 4      1 +1.5204000e-02 5.23778200e+02 7.81860800e-03 1.00775200e-01
        2 -1    0    0  501    0 +0.0000000000e+00 +0.0000000000e+00 +1.3795310438e+03 1.3795310438e+03 0.0000000000e+00 0.0000e+00 -1.0000e+00
       -2 -1    0    0    0  501 -0.0000000000e+00 -0.0000000000e+00 -4.9716820053e+01 4.9716820053e+01 0.0000000000e+00 0.0000e+00 1.0000e+00
     -556  1    1    2    0    0 +1.1909272745e+02 -6.9767561713e+01 +9.3136431747e+02 9.6254354824e+02 2.0000000000e+02 0.0000e+00 -1.0000e+00
      556  1    1    2    0    0 -1.1909272745e+02 +6.9767561713e+01 +3.9844990626e+02 4.6670431560e+02 2.0000000000e+02 0.0000e+00 1.0000e+00
<mgrwt>
<rscale>  0 0.52377818E+03</rscale>
<asrwt>0</asrwt>
<pdfrwt beam="1">  1        2 0.21223552E+00 0.52377818E+03</pdfrwt>
<pdfrwt beam="2">  1       -2 0.76487426E-02 0.52377818E+03</pdfrwt>
<totfact> 0.15972104E+03</totfact>
</mgrwt>
</event>
<event>
 4      1 +1.5204000e-02 1.02671700e+03 7.81860800e-03 9.27971800e-02
       -2 -1    0    0    0  501 -0.0000000000e+00 +0.0000000000e+00 +1.2643521222e+03 1.2643521222e+03 0.0000000000e+00 0.0000e+00 1.0000e+00
        2 -1    0    0  501    0 +0.0000000000e+00 -0.0000000000e+00 -2.0843649648e+02 2.0843649648e+02 0.0000000000e+00 0.0000e+00 -1.0000e+00
     -556  1    1    2    0    0 -2.1622252359e+02 -1.8945766408e+02 -1.0474042578e+01 3.5036565436e+02 2.0000000000e+02 0.0000e+00 -1.0000e+00
      556  1    1    2    0    0 +2.1622252359e+02 +1.8945766408e+02 +1.0663896683e+03 1.1224229644e+03 2.0000000000e+02 0.0000e+00 1.0000e+00
<mgrwt>
<rscale>  0 0.10267173E+04</rscale>
<asrwt>0</asrwt>
<pdfrwt beam="2">  1        2 0.32067154E-01 0.10267173E+04</pdfrwt>
<pdfrwt beam="1">  1       -2 0.19451571E+00 0.10267173E+04</pdfrwt>
<totfact> 0.23811505E+01</totfact>
</mgrwt>
</event>
<event>
 4      1 +1.5204000e-02 5.22794100e+02 7.81860800e-03 1.00799500e-01
        4 -1    0    0  501    0 +0.0000000000e+00 +0.0000000000e+00 +8.6295143625e+02 8.6295143625e+02 0.0000000000e+00 0.0000e+00 -1.0000e+00
       -4 -1    0    0    0  501 -0.0000000000e+00 -0.0000000000e+00 -7.9179914028e+01 7.9179914028e+01 0.0000000000e+00 0.0000e+00 1.0000e+00
     -556  1    1    2    0    0 -8.6497395206e+01 +6.5959800085e+00 +1.3196262064e+02 2.5483217924e+02 2.0000000000e+02 0.0000e+00 1.0000e+00
      556  1    1    2    0    0 +8.6497395206e+01 -6.5959800085e+00 +6.5180890158e+02 6.8729917104e+02 2.0000000000e+02 0.0000e+00 -1.0000e+00
<mgrwt>
<rscale>  0 0.52279411E+03</rscale>
<asrwt>0</asrwt>
<pdfrwt beam="1">  1        4 0.13276175E+00 0.52279411E+03</pdfrwt>
<pdfrwt beam="2">  1       -4 0.12181526E-01 0.52279411E+03</pdfrwt>
<totfact> 0.45342221E+01</totfact>
</mgrwt>
</event>
<event>
 4      1 +1.5204000e-02 1.07526500e+03 7.81860800e-03 9.22964200e-02
       -2 -1    0    0    0  501 -0.0000000000e+00 +0.0000000000e+00 +1.2227865339e+02 1.2227865339e+02 0.0000000000e+00 0.0000e+00 1.0000e+00
        2 -1    0    0  501    0 +0.0000000000e+00 -0.0000000000e+00 -2.3638516554e+03 2.3638516554e+03 0.0000000000e+00 0.0000e+00 -1.0000e+00
     -556  1    1    2    0    0 +4.6233436214e+01 -2.7292768880e+02 -1.6071357351e+02 3.7743331417e+02 2.0000000000e+02 0.0000e+00 1.0000e+00
      556  1    1    2    0    0 -4.6233436214e+01 +2.7292768880e+02 -2.0808594285e+03 2.1086969946e+03 2.0000000000e+02 0.0000e+00 -1.0000e+00
<mgrwt>
<rscale>  0 0.10752648E+04</rscale>
<asrwt>0</asrwt>
<pdfrwt beam="2">  1        2 0.36366949E+00 0.10752648E+04</pdfrwt>
<pdfrwt beam="1">  1       -2 0.18812100E-01 0.10752648E+04</pdfrwt>
<totfact> 0.99365558E+01</totfact>
</mgrwt>
</event>
<event>
 4      1 +1.5204000e-02 6.81794400e+02 7.81860800e-03 9.74888300e-02
       -4 -1    0    0    0  501 -0.0000000000e+00 +0.0000000000e+00 +2.8212587985e+02 2.8212587985e+02 0.0000000000e+00 0.0000e+00 1.0000e+00
        4 -1    0    0  501    0 +0.0000000000e+00 -0.0000000000e+00 -4.1191149091e+02 4.1191149091e+02 0.0000000000e+00 0.0000e+00 -1.0000e+00
     -556  1    1    2    0    0 -2.4719597839e+02 -1.0328823957e+02 -1.3269653515e+02 3.5969804365e+02 2.0000000000e+02 0.0000e+00 1.0000e+00
      556  1    1    2    0    0 +2.4719597839e+02 +1.0328823957e+02 +2.9109240925e+00 3.3433932710e+02 2.0000000000e+02 0.0000e+00 -1.0000e+00
<mgrwt>
<rscale>  0 0.68179437E+03</rscale>
<asrwt>0</asrwt>
<pdfrwt beam="2">  1        4 0.63370998E-01 0.68179437E+03</pdfrwt>
<pdfrwt beam="1">  1       -4 0.43403982E-01 0.68179437E+03</pdfrwt>
<totfact> 0.23851671E+01</totfact>
</mgrwt>
</event>
<event>
 4      1 +1.5204000e-02 6.70009900e+02 7.81860800e-03 9.76994000e-02
        2 -1    0    0  501    0 +0.0000000000e+00 +0.0000000000e+00 +6.0120175073e+02 6.0120175073e+02 0.0000000000e+00 0.0000e+00 -1.0000e+00
       -2 -1    0    0    0  501 -0.0000000000e+00 -0.0000000000e+00 -1.8667329349e+02 1.8667329349e+02 0.0000000000e+00 0.0000e+00 1.0000e+00
     -556  1    1    2    0    0 +2.5970883474e+02 -5.6877521651e+01 +2.5347904968e+02 4.1825274648e+02 2.0000000000e+02 0.0000e+00 -1.0000e+00
      556  1    1    2    0    0 -2.5970883474e+02 +5.6877521651e+01 +1.6104940757e+02 3.6962229774e+02 2.0000000000e+02 0.0000e+00 1.0000e+00
<mgrwt>
<rscale>  0 0.67000988E+03</rscale>
<asrwt>0</asrwt>
<pdfrwt beam="1">  1        2 0.92492576E-01 0.67000988E+03</pdfrwt>
<pdfrwt beam="2">  1       -2 0.28718968E-01 0.67000988E+03</pdfrwt>
<totfact> 0.55346775E+02</totfact>
</mgrwt>
</event>
<event>
 4      1 +1.5204000e-02 5.31735400e+02 7.81860800e-03 1.00581200e-01
        2 -1    0    0  501    0 +0.0000000000e+00 +0.0000000000e+00 +5.0437062249e+02 5.0437062249e+02 0.0000000000e+00 0.0000e+00 -1.0000e+00
       -2 -1    0    0    0  501 -0.0000000000e+00 -0.0000000000e+00 -1.4014619982e+02 1.4014619982e+02 0.0000000000e+00 0.0000e+00 1.0000e+00
     -556  1    1    2    0    0 -1.6227793818e+02 -1.7126726926e+01 +2.5932761295e+02 3.6589378901e+02 2.0000000000e+02 0.0000e+00 -1.0000e+00
      556  1    1    2    0    0 +1.6227793818e+02 +1.7126726926e+01 +1.0489680972e+02 2.7862303330e+02 2.0000000000e+02 0.0000e+00 1.0000e+00
<mgrwt>
<rscale>  0 0.53173537E+03</rscale>
<asrwt>0</asrwt>
<pdfrwt beam="1">  1        2 0.77595480E-01 0.53173537E+03</pdfrwt>
<pdfrwt beam="2">  1       -2 0.21560954E-01 0.53173537E+03</pdfrwt>
<totfact> 0.11411402E+03</totfact>
</mgrwt>
</event>
<event>
 4      1 +1.5204000e-02 4.95594700e+02 7.81860800e-03 1.01493500e-01
        1 -1    0    0  501    0 +0.0000000000e+00 +0.0000000000e+00 +3.6876828827e+02 3.6876828827e+02 0.0000000000e+00 0.0000e+00 -1.0000e+00
       -1 -1    0    0    0  501 -0.0000000000e+00 -0.0000000000e+00 -1.6650977061e+02 1.6650977061e+02 0.0000000000e+00 0.0000e+00 1.0000e+00
     -556  1    1    2    0    0 +1.1582615196e+02 +6.8082441164e+01 +1.6366727683e+02 2.9126945219e+02 2.0000000000e+02 0.0000e+00 -1.0000e+00
      556  1    1    2    0    0 -1.1582615196e+02 -6.8082441164e+01 +3.8591240823e+01 2.4400860669e+02 2.0000000000e+02 0.0000e+00 1.0000e+00
<mgrwt>
<rscale>  0 0.49559469E+03</rscale>
<asrwt>0</asrwt>
<pdfrwt beam="1">  1        1 0.56733583E-01 0.49559469E+03</pdfrwt>
<pdfrwt beam="2">  1       -1 0.25616888E-01 0.49559469E+03</pdfrwt>
<totfact> 0.90136628E+02</totfact>
</mgrwt>
</event>
<event>
 4      1 +1.5204000e-02 6.05188300e+02 7.81860800e-03 9.89470000e-02
       -1 -1    0    0    0  501 -0.0000000000e+00 +0.0000000000e+00 +1.8443793587e+02 1.8443793587e+02 0.0000000000e+00 0.0000e+00 1.0000e+00
        1 -1    0    0  501    0 +0.0000000000e+00 -0.0000000000e+00 -4.9644457053e+02 4.9644457053e+02 0.0000000000e+00 0.0000e+00 -1.0000e+00
     -556  1    1    2    0    0 -2.0576966011e+01 +9.8239590682e+01 +7.3161012897e+01 2.3542931533e+02 2.0000000000e+02 0.0000e+00 1.0000e+00
      556  1    1    2    0    0 +2.0576966011e+01 -9.8239590682e+01 -3.8516764755e+02 4.4545319107e+02 2.0000000000e+02 0.0000e+00 -1.0000e+00
<mgrwt>
<rscale>  0 0.60518827E+03</rscale>
<asrwt>0</asrwt>
<pdfrwt beam="2">  1        1 0.76376087E-01 0.60518827E+03</pdfrwt>
<pdfrwt beam="1">  1       -1 0.28375067E-01 0.60518827E+03</pdfrwt>
<totfact> 0.50872729E+02</totfact>
</mgrwt>
</event>
<event>
 4      1 +1.5204000e-02 8.95223300e+02 7.81860800e-03 9.43157200e-02
        2 -1    0    0  501    0 +0.0000000000e+00 +0.0000000000e+00 +2.5792982680e+03 2.5792982680e+03 0.0000000000e+00 0.0000e+00 1.0000e+00
       -2 -1    0    0    0  501 -0.0000000000e+00 -0.0000000000e+00 -7.7678565735e+01 7.7678565735e+01 0.0000000000e+00 0.0000e+00 -1.0000e+00
     -556  1    1    2    0    0 +1.1319318385e+02 -1.6060196127e+01 +1.1177639681e+02 2.5605583308e+02 2.0000000000e+02 0.0000e+00 -1.0000e+00
      556  1    1    2    0    0 -1.1319318385e+02 +1.6060196127e+01 +2.3898433055e+03 2.4009210007e+03 2.0000000000e+02 0.0000e+00 1.0000e+00
<mgrwt>
<rscale>  0 0.89522330E+03</rscale>
<asrwt>0</asrwt>
<pdfrwt beam="1">  1        2 0.39681505E+00 0.89522330E+03</pdfrwt>
<pdfrwt beam="2">  1       -2 0.11950551E-01 0.89522330E+03</pdfrwt>
<totfact> 0.16447083E+02</totfact>
</mgrwt>
</event>
<event>
 4      1 +1.5204000e-02 4.76704400e+02 7.81860800e-03 1.02004500e-01
        3 -1    0    0  501    0 +0.0000000000e+00 +0.0000000000e+00 +3.5402067117e+02 3.5402067117e+02 0.0000000000e+00 0.0000e+00 -1.0000e+00
       -3 -1    0    0    0  501 -0.0000000000e+00 -0.0000000000e+00 -1.6047583129e+02 1.6047583129e+02 0.0000000000e+00 0.0000e+00 1.0000e+00
     -556  1    1    2    0    0 -1.9457598366e+01 +4.9001107222e+00 -4.1481156973e+01 2.0523960535e+02 2.0000000000e+02 0.0000e+00 1.0000e+00
      556  1    1    2    0    0 +1.9457598366e+01 -4.9001107222e+00 +2.3502599685e+02 3.0925689712e+02 2.0000000000e+02 0.0000e+00 -1.0000e+00
<mgrwt>
<rscale>  0 0.47670436E+03</rscale>
<asrwt>0</asrwt>
<pdfrwt beam="1">  1        3 0.54464718E-01 0.47670436E+03</pdfrwt>
<pdfrwt beam="2">  1       -3 0.24688590E-01 0.47670436E+03</pdfrwt>
<totfact> 0.13499210E+02</totfact>
</mgrwt>
</event>
<event>
 4      1 +1.5204000e-02 6.11351900e+02 7.81860800e-03 9.88213000e-02
       -2 -1    0    0    0  501 -0.0000000000e+00 +0.0000000000e+00 +3.7814321768e+01 3.7814321768e+01 0.0000000000e+00 0.0000e+00 1.0000e+00
        2 -1    0    0  501    0 +0.0000000000e+00 -0.0000000000e+00 -2.4709628785e+03 2.4709628785e+03 0.0000000000e+00 0.0000e+00 -1.0000e+00
     -556  1    1    2    0    0 -1.0665549103e+02 -1.9576453962e+02 -9.6565879676e+02 1.0110371212e+03 2.0000000000e+02 0.0000e+00 1.0000e+00
      556  1    1    2    0    0 +1.0665549103e+02 +1.9576453962e+02 -1.4674897600e+03 1.4977400790e+03 2.0000000000e+02 0.0000e+00 -1.0000e+00
<mgrwt>
<rscale>  0 0.61135190E+03</rscale>
<asrwt>0</asrwt>
<pdfrwt beam="2">  1        2 0.38014824E+00 0.61135190E+03</pdfrwt>
<pdfrwt beam="1">  1       -2 0.58175863E-02 0.61135190E+03</pdfrwt>
<totfact> 0.61869720E+02</totfact>
</mgrwt>
</event>
<event>
 4      1 +1.5204000e-02 5.11881200e+02 7.81860800e-03 1.01072300e-01
        1 -1    0    0  501    0 +0.0000000000e+00 +0.0000000000e+00 +1.6345058671e+02 1.6345058671e+02 0.0000000000e+00 0.0000e+00 -1.0000e+00
       -1 -1    0    0    0  501 -0.0000000000e+00 -0.0000000000e+00 -4.0076686708e+02 4.0076686708e+02 0.0000000000e+00 0.0000e+00 1.0000e+00
     -556  1    1    2    0    0 +8.5291624008e+01 +1.4253746657e+01 -2.6665350971e+02 3.4435726311e+02 2.0000000000e+02 0.0000e+00 1.0000e+00
      556  1    1    2    0    0 -8.5291624008e+01 -1.4253746657e+01 +2.9337229331e+01 2.1986019068e+02 2.0000000000e+02 0.0000e+00 -1.0000e+00
<mgrwt>
<rscale>  0 0.51188116E+03</rscale>
<asrwt>0</asrwt>
<pdfrwt beam="1">  1        1 0.25146244E-01 0.51188116E+03</pdfrwt>
<pdfrwt beam="2">  1       -1 0.61656441E-01 0.51188116E+03</pdfrwt>
<totfact> 0.52288298E+02</totfact>
</mgrwt>
</event>
<event>
 4      1 +1.5204000e-02 5.60579100e+02 7.81860800e-03 9.99074500e-02
        2 -1    0    0  501    0 +0.0000000000e+00 +0.0000000000e+00 +6.6096081644e+02 6.6096081644e+02 0.0000000000e+00 0.0000e+00 1.0000e+00
       -2 -1    0    0    0  501 -0.0000000000e+00 -0.0000000000e+00 -1.1886064490e+02 1.1886064490e+02 0.0000000000e+00 0.0000e+00 -1.0000e+00
     -556  1    1    2    0    0 -2.6407624223e+01 +1.1239310077e+02 +4.9202337635e+02 5.4352237727e+02 2.0000000000e+02 0.0000e+00 1.0000e+00
      556  1    1    2    0    0 +2.6407624223e+01 -1.1239310077e+02 +5.0076795184e+01 2.3629908407e+02 2.0000000000e+02 0.0000e+00 -1.0000e+00
<mgrwt>
<rscale>  0 0.56057909E+03</rscale>
<asrwt>0</asrwt>
<pdfrwt beam="1">  1        2 0.10168628E+00 0.56057909E+03</pdfrwt>
<pdfrwt beam="2">  1       -2 0.18286253E-01 0.56057909E+03</pdfrwt>
<totfact> 0.11025066E+03</totfact>
</mgrwt>
</event>
<event>
 4      1 +1.5204000e-02 6.94393900e+02 7.81860800e-03 9.72686800e-02
       -2 -1    0    0    0  501 -0.0000000000e+00 +0.0000000000e+00 +2.7722871538e+02 2.7722871538e+02 0.0000000000e+00 0.0000e+00 1.0000e+00
        2 -1    0    0  501    0 +0.0000000000e+00 -0.0000000000e+00 -4.3482408022e+02 4.3482408022e+02 0.0000000000e+00 0.0000e+00 -1.0000e+00
     -556  1    1    2    0    0 +8.1217619093e+01 -2.6468566524e+02 -1.4276120123e+02 3.7018314874e+02 2.0000000000e+02 0.0000e+00 1.0000e+00
      556  1    1    2    0    0 -8.1217619093e+01 +2.6468566524e+02 -1.4834163608e+01 3.4186964686e+02 2.0000000000e+02 0.0000e+00 -1.0000e+00
<mgrwt>
<rscale>  0 0.69439390E+03</rscale>
<asrwt>0</asrwt>
<pdfrwt beam="2">  1        2 0.66896012E-01 0.69439390E+03</pdfrwt>
<pdfrwt beam="1">  1       -2 0.42650572E-01 0.69439390E+03</pdfrwt>
<totfact> 0.38011515E+02</totfact>
</mgrwt>
</event>
<event>
 4      1 +1.5204000e-02 5.36129600e+02 7.81860800e-03 1.00475600e-01
       -2 -1    0    0    0  501 -0.0000000000e+00 +0.0000000000e+00 +1.4670808850e+02 1.4670808850e+02 0.0000000000e+00 0.0000e+00 1.0000e+00
        2 -1    0    0  501    0 +0.0000000000e+00 -0.0000000000e+00 -4.8980761477e+02 4.8980761477e+02 0.0000000000e+00 0.0000e+00 -1.0000e+00
     -556  1    1    2    0    0 +1.4586609382e+02 -3.1863935247e+01 -2.8767219528e+02 3.8085104651e+02 2.0000000000e+02 0.0000e+00 -1.0000e+00
      556  1    1    2    0    0 -1.4586609382e+02 +3.1863935247e+01 -5.5427330996e+01 2.5566465676e+02 2.0000000000e+02 0.0000e+00 1.0000e+00
<mgrwt>
<rscale>  0 0.53612961E+03</rscale>
<asrwt>0</asrwt>
<pdfrwt beam="2">  1        2 0.75355017E-01 0.53612961E+03</pdfrwt>
<pdfrwt beam="1">  1       -2 0.22570475E-01 0.53612961E+03</pdfrwt>
<totfact> 0.10887488E+03</totfact>
</mgrwt>
</event>
<event>
 4      1 +1.5204000e-02 5.33995000e+02 7.81860800e-03 1.00526800e-01
       -3 -1    0    0    0  501 -0.0000000000e+00 +0.0000000000e+00 +4.7603144395e+01 4.7603144395e+01 0.0000000000e+00 0.0000e+00 1.0000e+00
        3 -1    0    0  501    0 +0.0000000000e+00 -0.0000000000e+00 -1.4975413111e+03 1.4975413111e+03 0.0000000000e+00 0.0000e+00 -1.0000e+00
     -556  1    1    2    0    0 +1.2460981044e+02 +5.1296232494e+01 -3.9342305065e+02 4.6145487873e+02 2.0000000000e+02 0.0000e+00 1.0000e+00
      556  1    1    2    0    0 -1.2460981044e+02 -5.1296232494e+01 -1.0565151161e+03 1.0836895768e+03 2.0000000000e+02 0.0000e+00 -1.0000e+00
<mgrwt>
<rscale>  0 0.53399504E+03</rscale>
<asrwt>0</asrwt>
<pdfrwt beam="2">  1        3 0.23039095E+00 0.53399504E+03</pdfrwt>
<pdfrwt beam="1">  1       -3 0.73235613E-02 0.53399504E+03</pdfrwt>
<totfact> 0.33416605E+01</totfact>
</mgrwt>
</event>
<event>
 4      1 +1.5204000e-02 5.50745800e+02 7.81860800e-03 1.00132100e-01
        1 -1    0    0  501    0 +0.0000000000e+00 +0.0000000000e+00 +1.9644156564e+02 1.9644156564e+02 0.0000000000e+00 0.0000e+00 -1.0000e+00
       -1 -1    0    0    0  501 -0.0000000000e+00 -0.0000000000e+00 -3.8601932101e+02 3.8601932101e+02 0.0000000000e+00 0.0000e+00 1.0000e+00
     -556  1    1    2    0    0 -1.5911574397e+02 -9.0236812148e+01 -1.4627209517e+02 3.0798705829e+02 2.0000000000e+02 0.0000e+00 1.0000e+00
      556  1    1    2    0    0 +1.5911574397e+02 +9.0236812148e+01 -4.3305660203e+01 2.7447382836e+02 2.0000000000e+02 0.0000e+00 -1.0000e+00
<mgrwt>
<rscale>  0 0.55074582E+03</rscale>
<asrwt>0</asrwt>
<pdfrwt beam="1">  1        1 0.30221780E-01 0.55074582E+03</pdfrwt>
<pdfrwt beam="2">  1       -1 0.59387587E-01 0.55074582E+03</pdfrwt>
<totfact> 0.44323302E+02</totfact>
</mgrwt>
</event>
<event>
 4      1 +1.5204000e-02 5.59320400e+02 7.81860800e-03 9.99359300e-02
       -2 -1    0    0    0  501 -0.0000000000e+00 +0.0000000000e+00 +4.9725301852e+01 4.9725301852e+01 0.0000000000e+00 0.0000e+00 1.0000e+00
        2 -1    0    0  501    0 +0.0000000000e+00 -0.0000000000e+00 -1.5728378598e+03 1.5728378598e+03 0.0000000000e+00 0.0000e+00 -1.0000e+00
     -556  1    1    2    0    0 -8.4969220180e+01 +7.7460590243e+01 -1.2201450421e+03 1.2417623908e+03 2.0000000000e+02 0.0000e+00 -1.0000e+00
      556  1    1    2    0    0 +8.4969220180e+01 -7.7460590243e+01 -3.0296751578e+02 3.8080077079e+02 2.0000000000e+02 0.0000e+00 1.0000e+00
<mgrwt>
<rscale>  0 0.55932044E+03</rscale>
<asrwt>0</asrwt>
<pdfrwt beam="2">  1        2 0.24197505E+00 0.55932044E+03</pdfrwt>
<pdfrwt beam="1">  1       -2 0.76500465E-02 0.55932044E+03</pdfrwt>
<totfact> 0.12469145E+03</totfact>
</mgrwt>
</event>
<event>
 4      1 +1.5204000e-02 4.70694600e+02 7.81860800e-03 1.02172400e-01
        1 -1    0    0  501    0 +0.0000000000e+00 +0.0000000000e+00 +6.0780527411e+01 6.0780527411e+01 0.0000000000e+00 0.0000e+00 -1.0000e+00
       -1 -1    0    0    0  501 -0.0000000000e+00 -0.0000000000e+00 -9.1128443587e+02 9.1128443587e+02 0.0000000000e+00 0.0000e+00 1.0000e+00
     -556  1    1    2    0    0 -1.1666784267e+02 -4.1496826083e+01 -4.0993949974e+02 4.7263491781e+02 2.0000000000e+02 0.0000e+00 1.0000e+00
      556  1    1    2    0    0 +1.1666784267e+02 +4.1496826083e+01 -4.4056440872e+02 4.9943004547e+02 2.0000000000e+02 0.0000e+00 -1.0000e+00
<mgrwt>
<rscale>  0 0.47069459E+03</rscale>
<asrwt>0</asrwt>
<pdfrwt beam="1">  1        1 0.93508510E-02 0.47069459E+03</pdfrwt>
<pdfrwt beam="2">  1       -1 0.14019760E+00 0.47069459E+03</pdfrwt>
<totfact> 0.31470568E+02</totfact>
</mgrwt>
</event>
<event>
 4      1 +1.5204000e-02 6.16493600e+02 7.81860800e-03 9.87176600e-02
       -1 -1    0    0    0  501 -0.0000000000e+00 +0.0000000000e+00 +1.1007969651e+02 1.1007969651e+02 0.0000000000e+00 0.0000e+00 -1.0000e+00
        1 -1    0    0  501    0 +0.0000000000e+00 -0.0000000000e+00 -8.6315728587e+02 8.6315728587e+02 0.0000000000e+00 0.0000e+00 1.0000e+00
     -556  1    1    2    0    0 +1.3719435869e+02 -2.9703567125e+01 -6.7319135248e+02 7.1616422070e+02 2.0000000000e+02 0.0000e+00 1.0000e+00
      556  1    1    2    0    0 -1.3719435869e+02 +2.9703567125e+01 -7.9886236887e+01 2.5707276168e+02 2.0000000000e+02 0.0000e+00 -1.0000e+00
<mgrwt>
<rscale>  0 0.61649361E+03</rscale>
<asrwt>0</asrwt>
<pdfrwt beam="2">  1        1 0.13279343E+00 0.61649361E+03</pdfrwt>
<pdfrwt beam="1">  1       -1 0.16935338E-01 0.61649361E+03</pdfrwt>
<totfact> 0.53274594E+02</totfact>
</mgrwt>
</event>
<event>
 4      1 +1.5204000e-02 5.89745800e+02 7.81860800e-03 9.92691200e-02
       -1 -1    0    0    0  501 -0.0000000000e+00 +0.0000000000e+00 +2.5094018243e+03 2.5094018243e+03 0.0000000000e+00 0.0000e+00 1.0000e+00
        1 -1    0    0  501    0 +0.0000000000e+00 -0.0000000000e+00 -3.4649704172e+01 3.4649704172e+01 0.0000000000e+00 0.0000e+00 -1.0000e+00
     -556  1    1    2    0    0 -4.8213821802e+01 -2.1089347896e+02 +1.1846488776e+03 1.2207348587e+03 2.0000000000e+02 0.0000e+00 1.0000e+00
      556  1    1    2    0    0 +4.8213821802e+01 +2.1089347896e+02 +1.2901032426e+03 1.3233166698e+03 2.0000000000e+02 0.0000e+00 -1.0000e+00
<mgrwt>
<rscale>  0 0.58974581E+03</rscale>
<asrwt>0</asrwt>
<pdfrwt beam="2">  1        1 0.53307257E-02 0.58974581E+03</pdfrwt>
<pdfrwt beam="1">  1       -1 0.38606168E+00 0.58974581E+03</pdfrwt>
<totfact> 0.15588763E+01</totfact>
</mgrwt>
</event>
<event>
 4      1 +1.5204000e-02 5.58108500e+02 7.81860800e-03 9.99634400e-02
       -2 -1    0    0    0  501 -0.0000000000e+00 +0.0000000000e+00 +4.8166214518e+01 4.8166214518e+01 0.0000000000e+00 0.0000e+00 1.0000e+00
        2 -1    0    0  501    0 +0.0000000000e+00 -0.0000000000e+00 -1.6167198114e+03 1.6167198114e+03 0.0000000000e+00 0.0000e+00 -1.0000e+00
     -556  1    1    2    0    0 +3.6496847888e+00 +1.4350041821e+02 -3.9230348633e+02 4.6314977665e+02 2.0000000000e+02 0.0000e+00 1.0000e+00
      556  1    1    2    0    0 -3.6496847888e+00 -1.4350041821e+02 -1.1762501105e+03 1.2017362493e+03 2.0000000000e+02 0.0000e+00 -1.0000e+00
<mgrwt>
<rscale>  0 0.55810850E+03</rscale>
<asrwt>0</asrwt>
<pdfrwt beam="2">  1        2 0.24872609E+00 0.55810850E+03</pdfrwt>
<pdfrwt beam="1">  1       -2 0.74101878E-02 0.55810850E+03</pdfrwt>
<totfact> 0.12412312E+03</totfact>
</mgrwt>
</event>
<event>
 4      1 +1.5204000e-02 4.52042500e+02 7.81860800e-03 1.02711500e-01
        1 -1    0    0  501    0 +0.0000000000e+00 +0.0000000000e+00 +3.2557880437e+02 3.2557880437e+02 0.0000000000e+00 0.0000e+00 -1.0000e+00
       -1 -1    0    0    0  501 -0.0000000000e+00 -0.0000000000e+00 -1.5690706229e+02 1.5690706229e+02 0.0000000000e+00 0.0000e+00 1.0000e+00
     -556  1    1    2    0    0 +1.6568622667e+00 -2.6131128395e+01 -2.4512678127e+01 2.0319068003e+02 2.0000000000e+02 0.0000e+00 1.0000e+00
      556  1    1    2    0    0 -1.6568622667e+00 +2.6131128395e+01 +1.9318442020e+02 2.7929518662e+02 2.0000000000e+02 0.0000e+00 -1.0000e+00
<mgrwt>
<rscale>  0 0.45204254E+03</rscale>
<asrwt>0</asrwt>
<pdfrwt beam="1">  1        1 0.50089047E-01 0.45204254E+03</pdfrwt>
<pdfrwt beam="2">  1       -1 0.24139548E-01 0.45204254E+03</pdfrwt>
<totfact> 0.11705690E+03</totfact>
</mgrwt>
</event>
<event>
 4      1 +1.5204000e-02 1.22566100e+03 7.81860800e-03 9.09068700e-02
        1 -1    0    0  501    0 +0.0000000000e+00 +0.0000000000e+00 +2.0035920492e+03 2.0035920492e+03 0.0000000000e+00 0.0000e+00 -1.0000e+00
       -1 -1    0    0    0  501 -0.0000000000e+00 -0.0000000000e+00 -1.8744404482e+02 1.8744404482e+02 0.0000000000e+00 0.0000e+00 1.0000e+00
     -556  1    1    2    0    0 +2.7921966867e+02 -6.1416982429e+01 +1.8087049863e+03 1.8420503241e+03 2.0000000000e+02 0.0000e+00 -1.0000e+00
      556  1    1    2    0    0 -2.7921966867e+02 +6.1416982429e+01 +7.4430181231e+00 3.4898576994e+02 2.0000000000e+02 0.0000e+00 1.0000e+00
<mgrwt>
<rscale>  0 0.12256613E+04</rscale>
<asrwt>0</asrwt>
<pdfrwt beam="1">  1        1 0.30824492E+00 0.12256613E+04</pdfrwt>
<pdfrwt beam="2">  1       -1 0.28837547E-01 0.12256613E+04</pdfrwt>
<totfact> 0.32070324E+01</totfact>
</mgrwt>
</event>
<event>
 4      1 +1.5204000e-02 4.74147000e+02 7.81860800e-03 1.02075600e-01
       -2 -1    0    0    0  501 -0.0000000000e+00 +0.0000000000e+00 +3.3547361165e+01 3.3547361165e+01 0.0000000000e+00 0.0000e+00 1.0000e+00
        2 -1    0    0  501    0 +0.0000000000e+00 -0.0000000000e+00 -1.6753578377e+03 1.6753578377e+03 0.0000000000e+00 0.0000e+00 -1.0000e+00
     -556  1    1    2    0    0 -4.1870570805e+01 +1.1787774325e+02 -7.3595634062e+02 7.7283894982e+02 2.0000000000e+02 0.0000e+00 1.0000e+00
      556  1    1    2    0    0 +4.1870570805e+01 -1.1787774325e+02 -9.0585413588e+02 9.3606624901e+02 2.0000000000e+02 0.0000e+00 -1.0000e+00
<mgrwt>
<rscale>  0 0.47414696E+03</rscale>
<asrwt>0</asrwt>
<pdfrwt beam="2">  1        2 0.25774739E+00 0.47414696E+03</pdfrwt>
<pdfrwt beam="1">  1       -2 0.51611319E-02 0.47414696E+03</pdfrwt>
<totfact> 0.20384668E+03</totfact>
</mgrwt>
</event>
<event>
 4      1 +1.5204000e-02 5.78222400e+02 7.81860800e-03 9.95164700e-02
       -1 -1    0    0    0  501 -0.0000000000e+00 +0.0000000000e+00 +3.9973717733e+02 3.9973717733e+02 0.0000000000e+00 0.0000e+00 1.0000e+00
        1 -1    0    0  501    0 +0.0000000000e+00 -0.0000000000e+00 -2.0910059426e+02 2.0910059426e+02 0.0000000000e+00 0.0000e+00 -1.0000e+00
     -556  1    1    2    0    0 -4.5377997409e+01 -4.9772211719e+01 +3.0338892415e+02 3.6956903956e+02 2.0000000000e+02 0.0000e+00 1.0000e+00
      556  1    1    2    0    0 +4.5377997409e+01 +4.9772211719e+01 -1.1275234107e+02 2.3926873203e+02 2.0000000000e+02 0.0000e+00 -1.0000e+00
<mgrwt>
<rscale>  0 0.57822238E+03</rscale>
<asrwt>0</asrwt>
<pdfrwt beam="2">  1        1 0.32169322E-01 0.57822238E+03</pdfrwt>
<pdfrwt beam="1">  1       -1 0.61498027E-01 0.57822238E+03</pdfrwt>
<totfact> 0.38154481E+02</totfact>
</mgrwt>
</event>
<event>
 4      1 +1.5204000e-02 7.55222200e+02 7.81860800e-03 9.62719300e-02
        1 -1    0    0  501    0 +0.0000000000e+00 +0.0000000000e+00 +6.9323553578e+02 6.9323553578e+02 0.0000000000e+00 0.0000e+00 -1.0000e+00
       -1 -1    0    0    0  501 -0.0000000000e+00 -0.0000000000e+00 -2.0568785483e+02 2.0568785483e+02 0.0000000000e+00 0.0000e+00 1.0000e+00
     -556  1    1    2    0    0 -5.9149263683e+01 +3.1012770438e+02 +3.0800801458e+02 4.8430028439e+02 2.0000000000e+02 0.0000e+00 -1.0000e+00
      556  1    1    2    0    0 +5.9149263683e+01 -3.1012770438e+02 +1.7953966637e+02 4.1462310623e+02 2.0000000000e+02 0.0000e+00 1.0000e+00
<mgrwt>
<rscale>  0 0.75522217E+03</rscale>
<asrwt>0</asrwt>
<pdfrwt beam="1">  1        1 0.10665162E+00 0.75522217E+03</pdfrwt>
<pdfrwt beam="2">  1       -1 0.31644286E-01 0.75522217E+03</pdfrwt>
<totfact> 0.25957244E+02</totfact>
</mgrwt>
</event>
<event>
 4      1 +1.5204000e-02 6.29316500e+02 7.81860800e-03 9.84638300e-02
        2 -1    0    0  501    0 +0.0000000000e+00 +0.0000000000e+00 +1.6438574631e+03 1.6438574631e+03 0.0000000000e+00 0.0000e+00 -1.0000e+00
       -2 -1    0    0    0  501 -0.0000000000e+00 -0.0000000000e+00 -6.0230174964e+01 6.0230174964e+01 0.0000000000e+00 0.0000e+00 1.0000e+00
     -556  1    1    2    0    0 +2.3421694753e+02 +2.3492737766e+01 +6.2933575498e+02 7.0105133888e+02 2.0000000000e+02 0.0000e+00 1.0000e+00
      556  1    1    2    0    0 -2.3421694753e+02 -2.3492737766e+01 +9.5429153312e+02 1.0030362992e+03 2.0000000000e+02 0.0000e+00 -1.0000e+00
<mgrwt>
<rscale>  0 0.62931653E+03</rscale>
<asrwt>0</asrwt>
<pdfrwt beam="1">  1        2 0.25290111E+00 0.62931653E+03</pdfrwt>
<pdfrwt beam="2">  1       -2 0.92661820E-02 0.62931653E+03</pdfrwt>
<totfact> 0.83627974E+02</totfact>
</mgrwt>
</event>
<event>
 4      1 +1.5204000e-02 1.08842300e+03 7.81860800e-03 9.21655000e-02
       -3 -1    0    0    0  501 -0.0000000000e+00 +0.0000000000e+00 +7.6606830619e+02 7.6606830619e+02 0.0000000000e+00 0.0000e+00 1.0000e+00
        3 -1    0    0  501    0 +0.0000000000e+00 -0.0000000000e+00 -3.8660513435e+02 3.8660513435e+02 0.0000000000e+00 0.0000e+00 -1.0000e+00
     -556  1    1    2    0    0 +4.6466111512e+02 +1.3712115181e+02 +3.4484902576e+02 6.2740179530e+02 2.0000000000e+02 0.0000e+00 1.0000e+00
      556  1    1    2    0    0 -4.6466111512e+02 -1.3712115181e+02 +3.4614146079e+01 5.2527164523e+02 2.0000000000e+02 0.0000e+00 -1.0000e+00
<mgrwt>
<rscale>  0 0.10884226E+04</rscale>
<asrwt>0</asrwt>
<pdfrwt beam="2">  1        3 0.59477713E-01 0.10884226E+04</pdfrwt>
<pdfrwt beam="1">  1       -3 0.11785666E+00 0.10884226E+04</pdfrwt>
<totfact> 0.42553312E+00</totfact>
</mgrwt>
</event>
<event>
 4      1 +1.5204000e-02 5.54190500e+02 7.81860800e-03 1.00052900e-01
        1 -1    0    0  501    0 +0.0000000000e+00 +0.0000000000e+00 +1.4588420123e+03 1.4588420123e+03 0.0000000000e+00 0.0000e+00 -1.0000e+00
       -1 -1    0    0    0  501 -0.0000000000e+00 -0.0000000000e+00 -5.2632008996e+01 5.2632008996e+01 0.0000000000e+00 0.0000e+00 1.0000e+00
     -556  1    1    2    0    0 +1.5079580393e+02 +6.9243049493e+01 +9.6538252365e+02 9.9974866409e+02 2.0000000000e+02 0.0000e+00 -1.0000e+00
      556  1    1    2    0    0 -1.5079580393e+02 -6.9243049493e+01 +4.4082747964e+02 5.1172535719e+02 2.0000000000e+02 0.0000e+00 1.0000e+00
<mgrwt>
<rscale>  0 0.55419053E+03</rscale>
<asrwt>0</asrwt>
<pdfrwt beam="1">  1        1 0.22443720E+00 0.55419053E+03</pdfrwt>
<pdfrwt beam="2">  1       -1 0.80972333E-02 0.55419053E+03</pdfrwt>
<totfact> 0.63146011E+02</totfact>
</mgrwt>
</event>
<event>
 4      1 +1.5204000e-02 7.10944100e+02 7.81860800e-03 9.69869700e-02
       -2 -1    0    0    0  501 -0.0000000000e+00 +0.0000000000e+00 +4.3502912997e+01 4.3502912997e+01 0.0000000000e+00 0.0000e+00 1.0000e+00
        2 -1    0    0  501    0 +0.0000000000e+00 -0.0000000000e+00 -2.9046417587e+03 2.9046417587e+03 0.0000000000e+00 0.0000e+00 -1.0000e+00
     -556  1    1    2    0    0 +2.3045679877e+02 -1.5388828245e+02 -1.8362029696e+03 1.8677348005e+03 2.0000000000e+02 0.0000e+00 -1.0000e+00
      556  1    1    2    0    0 -2.3045679877e+02 +1.5388828245e+02 -1.0249358761e+03 1.0804098712e+03 2.0000000000e+02 0.0000e+00 1.0000e+00
<mgrwt>
<rscale>  0 0.71094410E+03</rscale>
<asrwt>0</asrwt>
<pdfrwt beam="2">  1        2 0.44686795E+00 0.71094410E+03</pdfrwt>
<pdfrwt beam="1">  1       -2 0.66927560E-02 0.71094410E+03</pdfrwt>
<totfact> 0.27549556E+02</totfact>
</mgrwt>
</event>
<event>
 4      1 +1.5204000e-02 4.96078900e+02 7.81860800e-03 1.01480700e-01
       -2 -1    0    0    0  501 -0.0000000000e+00 +0.0000000000e+00 +4.1897732172e+01 4.1897732172e+01 0.0000000000e+00 0.0000e+00 1.0000e+00
        2 -1    0    0  501    0 +0.0000000000e+00 -0.0000000000e+00 -1.4684223050e+03 1.4684223050e+03 0.0000000000e+00 0.0000e+00 -1.0000e+00
     -556  1    1    2    0    0 -1.4177627267e+02 -3.6213771767e+01 -7.4542708819e+02 7.8554025522e+02 2.0000000000e+02 0.0000e+00 1.0000e+00
      556  1    1    2    0    0 +1.4177627267e+02 +3.6213771767e+01 -6.8109748467e+02 7.2477978198e+02 2.0000000000e+02 0.0000e+00 -1.0000e+00
<mgrwt>
<rscale>  0 0.49607888E+03</rscale>
<asrwt>0</asrwt>
<pdfrwt beam="2">  1        2 0.22591113E+00 0.49607888E+03</pdfrwt>
<pdfrwt beam="1">  1       -2 0.64458049E-02 0.49607888E+03</pdfrwt>
<totfact> 0.18683192E+03</totfact>
</mgrwt>
</event>
<event>
 4      1 +1.5204000e-02 7.20656200e+02 7.81860800e-03 9.68254500e-02
        4 -1    0    0  501    0 +0.0000000000e+00 +0.0000000000e+00 +8.0519016320e+02 8.0519016320e+02 0.0000000000e+00 0.0000e+00 -1.0000e+00
       -4 -1    0    0    0  501 -0.0000000000e+00 -0.0000000000e+00 -1.6124927360e+02 1.6124927360e+02 0.0000000000e+00 0.0000e+00 1.0000e+00
     -556  1    1    2    0    0 +1.6390458785e+02 -5.1532562482e+01 -7.3834749550e+00 2.6377042029e+02 2.0000000000e+02 0.0000e+00 1.0000e+00
      556  1    1    2    0    0 -1.6390458785e+02 +5.1532562482e+01 +6.5132436455e+02 7.0266901652e+02 2.0000000000e+02 0.0000e+00 -1.0000e+00
<mgrwt>
<rscale>  0 0.72065617E+03</rscale>
<asrwt>0</asrwt>
<pdfrwt beam="1">  1        4 0.12387541E+00 0.72065617E+03</pdfrwt>
<pdfrwt beam="2">  1       -4 0.24807581E-01 0.72065617E+03</pdfrwt>
<totfact> 0.15041508E+01</totfact>
</mgrwt>
</event>
<event>
 4      1 +1.5204000e-02 5.19581600e+02 7.81860800e-03 1.00879100e-01
        1 -1    0    0  501    0 +0.0000000000e+00 +0.0000000000e+00 +1.0744387420e+02 1.0744387420e+02 0.0000000000e+00 0.0000e+00 -1.0000e+00
       -1 -1    0    0    0  501 -0.0000000000e+00 -0.0000000000e+00 -6.2815352706e+02 6.2815352706e+02 0.0000000000e+00 0.0000e+00 1.0000e+00
     -556  1    1    2    0    0 +5.4515746670e+01 -2.3226051771e+01 -4.7958964601e+02 5.2298914394e+02 2.0000000000e+02 0.0000e+00 1.0000e+00
      556  1    1    2    0    0 -5.4515746670e+01 +2.3226051771e+01 -4.1120006850e+01 2.1260825732e+02 2.0000000000e+02 0.0000e+00 -1.0000e+00
<mgrwt>
<rscale>  0 0.51958156E+03</rscale>
<asrwt>0</asrwt>
<pdfrwt beam="1">  1        1 0.16529827E-01 0.51958156E+03</pdfrwt>
<pdfrwt beam="2">  1       -1 0.96639003E-01 0.51958156E+03</pdfrwt>
<totfact> 0.35449273E+02</totfact>
</mgrwt>
</event>
<event>
 4      1 +1.5204000e-02 6.77772900e+02 7.81860800e-03 9.75601700e-02
        2 -1    0    0  501    0 +0.0000000000e+00 +0.0000000000e+00 +7.5803109007e+02 7.5803109007e+02 0.0000000000e+00 0.0000e+00 -1.0000e+00
       -2 -1    0    0    0  501 -0.0000000000e+00 -0.0000000000e+00 -1.5150306556e+02 1.5150306556e+02 0.0000000000e+00 0.0000e+00 1.0000e+00
     -556  1    1    2    0    0 -1.3632775843e+02 -2.2455230810e+02 +2.0075628370e+02 3.8640921603e+02 2.0000000000e+02 0.0000e+00 1.0000e+00
      556  1    1    2    0    0 +1.3632775843e+02 +2.2455230810e+02 +4.0577174081e+02 5.2312493960e+02 2.0000000000e+02 0.0000e+00 -1.0000e+00
<mgrwt>
<rscale>  0 0.67777292E+03</rscale>
<asrwt>0</asrwt>
<pdfrwt beam="1">  1        2 0.11662017E+00 0.67777292E+03</pdfrwt>
<pdfrwt beam="2">  1       -2 0.23308164E-01 0.67777292E+03</pdfrwt>
<totfact> 0.60502057E+02</totfact>
</mgrwt>
</event>
<event>
 4      1 +1.5204000e-02 1.12650900e+03 7.81860800e-03 9.17973300e-02
        2 -1    0    0  501    0 +0.0000000000e+00 +0.0000000000e+00 +6.6502366510e+02 6.6502366510e+02 0.0000000000e+00 0.0000e+00 -1.0000e+00
       -2 -1    0    0    0  501 -0.0000000000e+00 -0.0000000000e+00 -4.7705905765e+02 4.7705905765e+02 0.0000000000e+00 0.0000e+00 1.0000e+00
     -556  1    1    2    0    0 +4.2431818110e+02 +2.6375044416e+02 -7.4585243942e+01 5.4329842096e+02 2.0000000000e+02 0.0000e+00 1.0000e+00
      556  1    1    2    0    0 -4.2431818110e+02 -2.6375044416e+02 +2.6254985139e+02 5.9878430179e+02 2.0000000000e+02 0.0000e+00 -1.0000e+00
<mgrwt>
<rscale>  0 0.11265089E+04</rscale>
<asrwt>0</asrwt>
<pdfrwt beam="1">  1        2 0.10231133E+00 0.11265089E+04</pdfrwt>
<pdfrwt beam="2">  1       -2 0.73393701E-01 0.11265089E+04</pdfrwt>
<totfact> 0.72617817E+01</totfact>
</mgrwt>
</event>
<event>
 4      1 +1.5204000e-02 6.76373400e+02 7.81860800e-03 9.75851200e-02
        2 -1    0    0  501    0 +0.0000000000e+00 +0.0000000000e+00 +3.6126553907e+02 3.6126553907e+02 0.0000000000e+00 0.0000e+00 -1.0000e+00
       -2 -1    0    0    0  501 -0.0000000000e+00 -0.0000000000e+00 -3.1658220078e+02 3.1658220078e+02 0.0000000000e+00 0.0000e+00 1.0000e+00
     -556  1    1    2    0    0 +8.9838232790e+01 -8.6959495874e+01 -2.2054457397e+02 3.2291294663e+02 2.0000000000e+02 0.0000e+00 1.0000e+00
      556  1    1    2    0    0 -8.9838232790e+01 +8.6959495874e+01 +2.6522791226e+02 3.5493479322e+02 2.0000000000e+02 0.0000e+00 -1.0000e+00
<mgrwt>
<rscale>  0 0.67637339E+03</rscale>
<asrwt>0</asrwt>
<pdfrwt beam="1">  1        2 0.55579314E-01 0.67637339E+03</pdfrwt>
<pdfrwt beam="2">  1       -2 0.48704954E-01 0.67637339E+03</pdfrwt>
<totfact> 0.35931795E+02</totfact>
</mgrwt>
</event>
<event>
 4      1 +1.5204000e-02 4.74210500e+02 7.81860800e-03 1.02073900e-01
        2 -1    0    0  501    0 +0.0000000000e+00 +0.0000000000e+00 +2.0760560799e+03 2.0760560799e+03 0.0000000000e+00 0.0000e+00 -1.0000e+00
       -2 -1    0    0    0  501 -0.0000000000e+00 -0.0000000000e+00 -2.7079665173e+01 2.7079665173e+01 0.0000000000e+00 0.0000e+00 1.0000e+00
     -556  1    1    2    0    0 -1.7346993320e+01 +1.2250145512e+02 +8.9059899275e+02 9.2112653342e+02 2.0000000000e+02 0.0000e+00 1.0000e+00
      556  1    1    2    0    0 +1.7346993320e+01 -1.2250145512e+02 +1.1583774219e+03 1.1820092116e+03 2.0000000000e+02 0.0000e+00 -1.0000e+00
<mgrwt>
<rscale>  0 0.47421052E+03</rscale>
<asrwt>0</asrwt>
<pdfrwt beam="1">  1        2 0.31939312E+00 0.47421052E+03</pdfrwt>
<pdfrwt beam="2">  1       -2 0.41661040E-02 0.47421052E+03</pdfrwt>
<totfact> 0.17263249E+03</totfact>
</mgrwt>
</event>
<event>
 4      1 +1.5204000e-02 5.90437900e+02 7.81860800e-03 9.92544500e-02
       -1 -1    0    0    0  501 -0.0000000000e+00 +0.0000000000e+00 +7.8050221139e+02 7.8050221139e+02 0.0000000000e+00 0.0000e+00 1.0000e+00
        1 -1    0    0  501    0 +0.0000000000e+00 -0.0000000000e+00 -1.1166428841e+02 1.1166428841e+02 0.0000000000e+00 0.0000e+00 -1.0000e+00
     -556  1    1    2    0    0 +1.0521715747e+02 -3.9582853698e+01 +5.3690284056e+01 2.3562703397e+02 2.0000000000e+02 0.0000e+00 -1.0000e+00
      556  1    1    2    0    0 -1.0521715747e+02 +3.9582853698e+01 +6.1514763892e+02 6.5653946584e+02 2.0000000000e+02 0.0000e+00 1.0000e+00
<mgrwt>
<rscale>  0 0.59043789E+03</rscale>
<asrwt>0</asrwt>
<pdfrwt beam="2">  1        1 0.17179122E-01 0.59043789E+03</pdfrwt>
<pdfrwt beam="1">  1       -1 0.12007726E+00 0.59043789E+03</pdfrwt>
<totfact> 0.20258960E+02</totfact>
</mgrwt>
</event>
<event>
 4      1 +1.5204000e-02 4.59513400e+02 7.81860800e-03 1.02492200e-01
       -2 -1    0    0    0  501 -0.0000000000e+00 +0.0000000000e+00 +3.1915775161e+02 3.1915775161e+02 0.0000000000e+00 0.0000e+00 1.0000e+00
        2 -1    0    0  501    0 +0.0000000000e+00 -0.0000000000e+00 -1.6539827896e+02 1.6539827896e+02 0.0000000000e+00 0.0000e+00 -1.0000e+00
     -556  1    1    2    0    0 +4.1780756095e+01 +6.6833595219e+01 -8.6307768400e+00 2.1514379224e+02 2.0000000000e+02 0.0000e+00 -1.0000e+00
      556  1    1    2    0    0 -4.1780756095e+01 -6.6833595219e+01 +1.6239024950e+02 2.6941223833e+02 2.0000000000e+02 0.0000e+00 1.0000e+00
<mgrwt>
<rscale>  0 0.45951341E+03</rscale>
<asrwt>0</asrwt>
<pdfrwt beam="2">  1        2 0.25445889E-01 0.45951341E+03</pdfrwt>
<pdfrwt beam="1">  1       -2 0.49101192E-01 0.45951341E+03</pdfrwt>
<totfact> 0.84581422E+02</totfact>
</mgrwt>
</event>
<event>
 4      1 +1.5204000e-02 6.23146000e+02 7.81860800e-03 9.85851600e-02
        1 -1    0    0  501    0 +0.0000000000e+00 +0.0000000000e+00 +7.0866342490e+01 7.0866342490e+01 0.0000000000e+00 0.0000e+00 -1.0000e+00
       -1 -1    0    0    0  501 -0.0000000000e+00 -0.0000000000e+00 -1.3698708687e+03 1.3698708687e+03 0.0000000000e+00 0.0000e+00 1.0000e+00
     -556  1    1    2    0    0 -2.0453549952e+02 +1.2217519440e+02 -6.9061426727e+02 7.5743621174e+02 2.0000000000e+02 0.0000e+00 -1.0000e+00
      556  1    1    2    0    0 +2.0453549952e+02 -1.2217519440e+02 -6.0839025897e+02 6.8330099949e+02 2.0000000000e+02 0.0000e+00 1.0000e+00
<mgrwt>
<rscale>  0 0.62314601E+03</rscale>
<asrwt>0</asrwt>
<pdfrwt beam="1">  1        1 0.10902515E-01 0.62314601E+03</pdfrwt>
<pdfrwt beam="2">  1       -1 0.21074935E+00 0.62314601E+03</pdfrwt>
<totfact> 0.78201580E+01</totfact>
</mgrwt>
</event>
<event>
 4      1 +1.5204000e-02 5.60962500e+02 7.81860800e-03 9.98987900e-02
       -2 -1    0    0    0  501 -0.0000000000e+00 +0.0000000000e+00 +1.6310433110e+02 1.6310433110e+02 0.0000000000e+00 0.0000e+00 1.0000e+00
        2 -1    0    0  501    0 +0.0000000000e+00 -0.0000000000e+00 -4.8232760804e+02 4.8232760804e+02 0.0000000000e+00 0.0000e+00 -1.0000e+00
     -556  1    1    2    0    0 +1.3478407531e+02 +1.3601196603e+02 -1.0810832524e+02 2.9724301817e+02 2.0000000000e+02 0.0000e+00 -1.0000e+00
      556  1    1    2    0    0 -1.3478407531e+02 -1.3601196603e+02 -2.1111495170e+02 3.4818892098e+02 2.0000000000e+02 0.0000e+00 1.0000e+00
<mgrwt>
<rscale>  0 0.56096247E+03</rscale>
<asrwt>0</asrwt>
<pdfrwt beam="2">  1        2 0.74204247E-01 0.56096247E+03</pdfrwt>
<pdfrwt beam="1">  1       -2 0.25092974E-01 0.56096247E+03</pdfrwt>
<totfact> 0.91738188E+02</totfact>
</mgrwt>
</event>
<event>
 4      1 +1.5204000e-02 5.13350800e+02 7.81860800e-03 1.01035200e-01
       -2 -1    0    0    0  501 -0.0000000000e+00 +0.0000000000e+00 +1.8734258910e+02 1.8734258910e+02 0.0000000000e+00 0.0000e+00 1.0000e+00
        2 -1    0    0  501    0 +0.0000000000e+00 -0.0000000000e+00 -3.5166734751e+02 3.5166734751e+02 0.0000000000e+00 0.0000e+00 -1.0000e+00
     -556  1    1    2    0    0 -1.2868701200e+02 +2.5614661396e+01 +1.5580957761e+01 2.3970653763e+02 2.0000000000e+02 0.0000e+00 1.0000e+00
      556  1    1    2    0    0 +1.2868701200e+02 -2.5614661396e+01 -1.7990571617e+02 2.9930339899e+02 2.0000000000e+02 0.0000e+00 -1.0000e+00
<mgrwt>
<rscale>  0 0.51335084E+03</rscale>
<asrwt>0</asrwt>
<pdfrwt beam="2">  1        2 0.54102669E-01 0.51335084E+03</pdfrwt>
<pdfrwt beam="1">  1       -2 0.28821937E-01 0.51335084E+03</pdfrwt>
<totfact> 0.10169402E+03</totfact>
</mgrwt>
</event>
<event>
 4      1 +1.5204000e-02 1.07574900e+03 7.81860800e-03 9.22915700e-02
        2 -1    0    0  501    0 +0.0000000000e+00 +0.0000000000e+00 +4.1718937840e+03 4.1718937840e+03 0.0000000000e+00 0.0000e+00 -1.0000e+00
       -2 -1    0    0    0  501 -0.0000000000e+00 -0.0000000000e+00 -6.9347120299e+01 6.9347120299e+01 0.0000000000e+00 0.0000e+00 1.0000e+00
     -556  1    1    2    0    0 +2.9424453396e+01 -4.8751215975e+02 +2.4605236730e+03 2.5164877607e+03 2.0000000000e+02 0.0000e+00 -1.0000e+00
      556  1    1    2    0    0 -2.9424453396e+01 +4.8751215975e+02 +1.6420229907e+03 1.7247531436e+03 2.0000000000e+02 0.0000e+00 1.0000e+00
<mgrwt>
<rscale>  0 0.10757487E+04</rscale>
<asrwt>0</asrwt>
<pdfrwt beam="1">  1        2 0.64182962E+00 0.10757487E+04</pdfrwt>
<pdfrwt beam="2">  1       -2 0.10668791E-01 0.10757487E+04</pdfrwt>
<totfact> 0.16016493E+01</totfact>
</mgrwt>
</event>
<event>
 4      1 +1.5204000e-02 5.29529600e+02 7.81860800e-03 1.00634600e-01
       -1 -1    0    0    0  501 -0.0000000000e+00 +0.0000000000e+00 +2.0325402820e+02 2.0325402820e+02 0.0000000000e+00 0.0000e+00 1.0000e+00
        1 -1    0    0  501    0 +0.0000000000e+00 -0.0000000000e+00 -3.4489055911e+02 3.4489055911e+02 0.0000000000e+00 0.0000e+00 -1.0000e+00
     -556  1    1    2    0    0 -4.0409412061e+01 -1.6779485810e+02 -5.2523244443e+01 2.6934499475e+02 2.0000000000e+02 0.0000e+00 1.0000e+00
      556  1    1    2    0    0 +4.0409412061e+01 +1.6779485810e+02 -8.9113286465e+01 2.7879959256e+02 2.0000000000e+02 0.0000e+00 -1.0000e+00
<mgrwt>
<rscale>  0 0.52952959E+03</rscale>
<asrwt>0</asrwt>
<pdfrwt beam="2">  1        1 0.53060086E-01 0.52952959E+03</pdfrwt>
<pdfrwt beam="1">  1       -1 0.31269850E-01 0.52952959E+03</pdfrwt>
<totfact> 0.69775026E+02</totfact>
</mgrwt>
</event>
<event>
 4      1 +1.5204000e-02 6.99440600e+02 7.81860800e-03 9.71818900e-02
       -2 -1    0    0    0  501 -0.0000000000e+00 +0.0000000000e+00 +9.8664982210e+02 9.8664982210e+02 0.0000000000e+00 0.0000e+00 1.0000e+00
        2 -1    0    0  501    0 +0.0000000000e+00 -0.0000000000e+00 -1.2395916833e+02 1.2395916833e+02 0.0000000000e+00 0.0000e+00 -1.0000e+00
     -556  1    1    2    0    0 -1.8812062536e+02 +1.8877644427e+02 +5.9997485377e+02 6.8629129439e+02 2.0000000000e+02 0.0000e+00 1.0000e+00
      556  1    1    2    0    0 +1.8812062536e+02 -1.8877644427e+02 +2.6271580000e+02 4.2431769604e+02 2.0000000000e+02 0.0000e+00 -1.0000e+00
<mgrwt>
<rscale>  0 0.69944061E+03</rscale>
<asrwt>0</asrwt>
<pdfrwt beam="2">  1        2 0.19070642E-01 0.69944061E+03</pdfrwt>
<pdfrwt beam="1">  1       -2 0.15179227E+00 0.69944061E+03</pdfrwt>
<totfact> 0.88421262E+01</totfact>
</mgrwt>
</event>
<event>
 4      1 +1.5204000e-02 5.81686400e+02 7.81860800e-03 9.94414700e-02
        2 -1    0    0  501    0 +0.0000000000e+00 +0.0000000000e+00 +6.1601497471e+02 6.1601497471e+02 0.0000000000e+00 0.0000e+00 -1.0000e+00
       -2 -1    0    0    0  501 -0.0000000000e+00 -0.0000000000e+00 -1.3731770768e+02 1.3731770768e+02 0.0000000000e+00 0.0000e+00 1.0000e+00
     -556  1    1    2    0    0 -2.7547115355e+01 +4.0720331935e+01 -2.6609941183e+01 2.0766578430e+02 2.0000000000e+02 0.0000e+00 1.0000e+00
      556  1    1    2    0    0 +2.7547115355e+01 -4.0720331935e+01 +5.0530720822e+02 5.4566689809e+02 2.0000000000e+02 0.0000e+00 -1.0000e+00
<mgrwt>
<rscale>  0 0.58168639E+03</rscale>
<asrwt>0</asrwt>
<pdfrwt beam="1">  1        2 0.94771533E-01 0.58168639E+03</pdfrwt>
<pdfrwt beam="2">  1       -2 0.21125802E-01 0.58168639E+03</pdfrwt>
<totfact> 0.93445934E+02</totfact>
</mgrwt>
</event>
<event>
 4      1 +1.5204000e-02 4.74664000e+02 7.81860800e-03 1.02061200e-01
        2 -1    0    0  501    0 +0.0000000000e+00 +0.0000000000e+00 +1.4764498351e+03 1.4764498351e+03 0.0000000000e+00 0.0000e+00 1.0000e+00
       -2 -1    0    0    0  501 -0.0000000000e+00 -0.0000000000e+00 -3.8149939882e+01 3.8149939882e+01 0.0000000000e+00 0.0000e+00 -1.0000e+00
     -556  1    1    2    0    0 +1.3737962394e+01 -4.6195132354e+01 +1.0967515243e+03 1.1158793071e+03 2.0000000000e+02 0.0000e+00 1.0000e+00
      556  1    1    2    0    0 -1.3737962394e+01 +4.6195132354e+01 +3.4154837090e+02 3.9872046791e+02 2.0000000000e+02 0.0000e+00 -1.0000e+00
<mgrwt>
<rscale>  0 0.47466398E+03</rscale>
<asrwt>0</asrwt>
<pdfrwt beam="1">  1        2 0.22714608E+00 0.47466398E+03</pdfrwt>
<pdfrwt beam="2">  1       -2 0.58692227E-02 0.47466398E+03</pdfrwt>
<totfact> 0.21420516E+03</totfact>
</mgrwt>
</event>
<event>
 4      1 +1.5204000e-02 6.15331100e+02 7.81860800e-03 9.87410000e-02
        1 -1    0    0  501    0 +0.0000000000e+00 +0.0000000000e+00 +9.0054070483e+01 9.0054070483e+01 0.0000000000e+00 0.0000e+00 -1.0000e+00
       -1 -1    0    0    0  501 -0.0000000000e+00 -0.0000000000e+00 -1.0511251756e+03 1.0511251756e+03 0.0000000000e+00 0.0000e+00 1.0000e+00
     -556  1    1    2    0    0 +2.1823638019e+02 +7.1210056463e+01 -5.6264351887e+02 6.3973878974e+02 2.0000000000e+02 0.0000e+00 1.0000e+00
      556  1    1    2    0    0 -2.1823638019e+02 -7.1210056463e+01 -3.9842758629e+02 5.0144045638e+02 2.0000000000e+02 0.0000e+00 -1.0000e+00
<mgrwt>
<rscale>  0 0.61533113E+03</rscale>
<asrwt>0</asrwt>
<pdfrwt beam="1">  1        1 0.13854472E-01 0.61533113E+03</pdfrwt>
<pdfrwt beam="2">  1       -1 0.16171157E+00 0.61533113E+03</pdfrwt>
<totfact> 0.12486198E+02</totfact>
</mgrwt>
</event>
<event>
 4      1 +1.5204000e-02 5.55523000e+02 7.81860800e-03 1.00022400e-01
       -1 -1    0    0    0  501 -0.0000000000e+00 +0.0000000000e+00 +7.3063997991e+01 7.3063997991e+01 0.0000000000e+00 0.0000e+00 1.0000e+00
        1 -1    0    0  501    0 +0.0000000000e+00 -0.0000000000e+00 -1.0559435876e+03 1.0559435876e+03 0.0000000000e+00 0.0000e+00 -1.0000e+00
     -556  1    1    2    0    0 +1.1283143641e+02 -1.2174106175e+02 -2.9231640116e+02 3.9115303597e+02 2.0000000000e+02 0.0000e+00 1.0000e+00
      556  1    1    2    0    0 -1.1283143641e+02 +1.2174106175e+02 -6.9056318843e+02 7.3785454960e+02 2.0000000000e+02 0.0000e+00 -1.0000e+00
<mgrwt>
<rscale>  0 0.55552303E+03</rscale>
<asrwt>0</asrwt>
<pdfrwt beam="2">  1        1 0.16245286E+00 0.55552303E+03</pdfrwt>
<pdfrwt beam="1">  1       -1 0.11240615E-01 0.55552303E+03</pdfrwt>
<totfact> 0.72900510E+02</totfact>
</mgrwt>
</event>
<event>
 4      1 +1.5204000e-02 1.24447700e+03 7.81860800e-03 9.07479300e-02
        2 -1    0    0  501    0 +0.0000000000e+00 +0.0000000000e+00 +3.6042441836e+02 3.6042441836e+02 0.0000000000e+00 0.0000e+00 -1.0000e+00
       -2 -1    0    0    0  501 -0.0000000000e+00 -0.0000000000e+00 -1.0742355766e+03 1.0742355766e+03 0.0000000000e+00 0.0000e+00 1.0000e+00
     -556  1    1    2    0    0 +4.7042583885e+02 +8.9760893324e+01 +3.8804956917e+01 5.2044530213e+02 2.0000000000e+02 0.0000e+00 -1.0000e+00
      556  1    1    2    0    0 -4.7042583885e+02 -8.9760893324e+01 -7.5261611518e+02 9.1421469287e+02 2.0000000000e+02 0.0000e+00 1.0000e+00
<mgrwt>
<rscale>  0 0.12444770E+04</rscale>
<asrwt>0</asrwt>
<pdfrwt beam="1">  1        2 0.55449911E-01 0.12444770E+04</pdfrwt>
<pdfrwt beam="2">  1       -2 0.16526701E+00 0.12444770E+04</pdfrwt>
<totfact> 0.20252481E+01</totfact>
</mgrwt>
</event>
<event>
 4      1 +1.5204000e-02 6.47899000e+02 7.81860800e-03 9.81073000e-02
        2 -1    0    0  501    0 +0.0000000000e+00 +0.0000000000e+00 +1.9427135009e+03 1.9427135009e+03 0.0000000000e+00 0.0000e+00 -1.0000e+00
       -2 -1    0    0    0  501 -0.0000000000e+00 -0.0000000000e+00 -5.4018919409e+01 5.4018919409e+01 0.0000000000e+00 0.0000e+00 1.0000e+00
     -556  1    1    2    0    0 -1.3222093482e+02 -1.0002078207e+02 +3.4789240017e+02 4.3418389485e+02 2.0000000000e+02 0.0000e+00 1.0000e+00
      556  1    1    2    0    0 +1.3222093482e+02 +1.0002078207e+02 +1.5408021813e+03 1.5625485255e+03 2.0000000000e+02 0.0000e+00 -1.0000e+00
<mgrwt>
<rscale>  0 0.64789902E+03</rscale>
<asrwt>0</asrwt>
<pdfrwt beam="1">  1        2 0.29887895E+00 0.64789902E+03</pdfrwt>
<pdfrwt beam="2">  1       -2 0.83106045E-02 0.64789902E+03</pdfrwt>
<totfact> 0.68475972E+02</totfact>
</mgrwt>
</event>
<event>
 4      1 +1.5204000e-02 4.42500800e+02 7.81860800e-03 1.02998200e-01
        1 -1    0    0  501    0 +0.0000000000e+00 +0.0000000000e+00 +1.1104006516e+02 1.1104006516e+02 0.0000000000e+00 0.0000e+00 -1.0000e+00
       -1 -1    0    0    0  501 -0.0000000000e+00 -0.0000000000e+00 -4.4084746278e+02 4.4084746278e+02 0.0000000000e+00 0.0000e+00 1.0000e+00
     -556  1    1    2    0    0 +5.1925005298e+01 +5.9756143591e+00 -2.6326524692e+02 3.3472452013e+02 2.0000000000e+02 0.0000e+00 1.0000e+00
      556  1    1    2    0    0 -5.1925005298e+01 -5.9756143591e+00 -6.6542150700e+01 2.1716300781e+02 2.0000000000e+02 0.0000e+00 -1.0000e+00
<mgrwt>
<rscale>  0 0.44250076E+03</rscale>
<asrwt>0</asrwt>
<pdfrwt beam="1">  1        1 0.17083087E-01 0.44250076E+03</pdfrwt>
<pdfrwt beam="2">  1       -1 0.67822687E-01 0.44250076E+03</pdfrwt>
<totfact> 0.71851994E+02</totfact>
</mgrwt>
</event>
<event>
 4      1 +1.5204000e-02 4.27054800e+02 7.81860800e-03 1.03479400e-01
       -2 -1    0    0    0  501 -0.0000000000e+00 +0.0000000000e+00 +1.9320670673e+01 1.9320670673e+01 0.0000000000e+00 0.0000e+00 -1.0000e+00
        2 -1    0    0  501    0 +0.0000000000e+00 -0.0000000000e+00 -2.3598529914e+03 2.3598529914e+03 0.0000000000e+00 0.0000e+00 1.0000e+00
     -556  1    1    2    0    0 -7.0683295071e+01 -1.6250562836e+01 -1.2720414784e+03 1.2897091656e+03 2.0000000000e+02 0.0000e+00 1.0000e+00
      556  1    1    2    0    0 +7.0683295071e+01 +1.6250562836e+01 -1.0684908423e+03 1.0894644965e+03 2.0000000000e+02 0.0000e+00 -1.0000e+00
<mgrwt>
<rscale>  0 0.42705476E+03</rscale>
<asrwt>0</asrwt>
<pdfrwt beam="2">  1        2 0.36305411E+00 0.42705476E+03</pdfrwt>
<pdfrwt beam="1">  1       -2 0.29724125E-02 0.42705476E+03</pdfrwt>
<totfact> 0.20276641E+03</totfact>
</mgrwt>
</event>
<event>
 4      1 +1.5204000e-02 6.46609800e+02 7.81860800e-03 9.81316200e-02
       -1 -1    0    0    0  501 -0.0000000000e+00 +0.0000000000e+00 +8.0388330875e+01 8.0388330875e+01 0.0000000000e+00 0.0000e+00 1.0000e+00
        1 -1    0    0  501    0 +0.0000000000e+00 -0.0000000000e+00 -1.3002638726e+03 1.3002638726e+03 0.0000000000e+00 0.0000e+00 -1.0000e+00
     -556  1    1    2    0    0 +3.5968028458e+01 +2.5145442900e+02 -6.1364437184e+02 6.9360106980e+02 2.0000000000e+02 0.0000e+00 1.0000e+00
      556  1    1    2    0    0 -3.5968028458e+01 -2.5145442900e+02 -6.0623116984e+02 6.8705113363e+02 2.0000000000e+02 0.0000e+00 -1.0000e+00
<mgrwt>
<rscale>  0 0.64660975E+03</rscale>
<asrwt>0</asrwt>
<pdfrwt beam="2">  1        1 0.20004058E+00 0.64660975E+03</pdfrwt>
<pdfrwt beam="1">  1       -1 0.12367437E-01 0.64660975E+03</pdfrwt>
<totfact> 0.41446960E+02</totfact>
</mgrwt>
</event>
<event>
 4      1 +1.5204000e-02 7.89621500e+02 7.81860800e-03 9.57516200e-02
       -1 -1    0    0    0  501 -0.0000000000e+00 +0.0000000000e+00 +7.8506322445e+01 7.8506322445e+01 0.0000000000e+00 0.0000e+00 1.0000e+00
        1 -1    0    0  501    0 +0.0000000000e+00 -0.0000000000e+00 -1.9855156458e+03 1.9855156458e+03 0.0000000000e+00 0.0000e+00 -1.0000e+00
     -556  1    1    2    0    0 +3.1454192109e+02 -4.9725719062e+01 -1.2678981504e+03 1.3224881803e+03 2.0000000000e+02 0.0000e+00 -1.0000e+00
      556  1    1    2    0    0 -3.1454192109e+02 +4.9725719062e+01 -6.3911117296e+02 7.4153378794e+02 2.0000000000e+02 0.0000e+00 1.0000e+00
<mgrwt>
<rscale>  0 0.78962151E+03</rscale>
<asrwt>0</asrwt>
<pdfrwt beam="2">  1        1 0.30546396E+00 0.78962151E+03</pdfrwt>
<pdfrwt beam="1">  1       -1 0.12077895E-01 0.78962151E+03</pdfrwt>
<totfact> 0.14599616E+02</totfact>
</mgrwt>
</event>
<event>
 4      1 +1.5204000e-02 4.40760600e+02 7.81860800e-03 1.03051400e-01
       -2 -1    0    0    0  501 -0.0000000000e+00 +0.0000000000e+00 +2.9572203664e+02 2.9572203664e+02 0.0000000000e+00 0.0000e+00 1.0000e+00
        2 -1    0    0  501    0 +0.0000000000e+00 -0.0000000000e+00 -1.6423350905e+02 1.6423350905e+02 0.0000000000e+00 0.0000e+00 -1.0000e+00
     -556  1    1    2    0    0 +2.1876536843e+00 -3.5897519464e+01 +1.5474657323e+02 2.5542106346e+02 2.0000000000e+02 0.0000e+00 1.0000e+00
      556  1    1    2    0    0 -2.1876536843e+00 +3.5897519464e+01 -2.3258045637e+01 2.0453448223e+02 2.0000000000e+02 0.0000e+00 -1.0000e+00
<mgrwt>
<rscale>  0 0.44076056E+03</rscale>
<asrwt>0</asrwt>
<pdfrwt beam="2">  1        2 0.25266694E-01 0.44076056E+03</pdfrwt>
<pdfrwt beam="1">  1       -2 0.45495698E-01 0.44076056E+03</pdfrwt>
<totfact> 0.99251582E+02</totfact>
</mgrwt>
</event>
<event>
 4      1 +1.5204000e-02 7.78464400e+02 7.81860800e-03 9.59172300e-02
       -1 -1    0    0    0  501 -0.0000000000e+00 +0.0000000000e+00 +3.1465784946e+02 3.1465784946e+02 0.0000000000e+00 0.0000e+00 1.0000e+00
        1 -1    0    0  501    0 +0.0000000000e+00 -0.0000000000e+00 -4.8148081114e+02 4.8148081114e+02 0.0000000000e+00 0.0000e+00 -1.0000e+00
     -556  1    1    2    0    0 -1.4966146658e+02 +9.7524979186e+01 +2.0511439008e+02 3.3761159512e+02 2.0000000000e+02 0.0000e+00 1.0000e+00
      556  1    1    2    0    0 +1.4966146658e+02 -9.7524979186e+01 -3.7193735176e+02 4.5852706548e+02 2.0000000000e+02 0.0000e+00 -1.0000e+00
<mgrwt>
<rscale>  0 0.77846443E+03</rscale>
<asrwt>0</asrwt>
<pdfrwt beam="2">  1        1 0.74073971E-01 0.77846443E+03</pdfrwt>
<pdfrwt beam="1">  1       -1 0.48408900E-01 0.77846443E+03</pdfrwt>
<totfact> 0.20168785E+02</totfact>
</mgrwt>
</event>
<event>
 4      1 +1.5204000e-02 8.15613200e+02 7.81860800e-03 9.53768900e-02
       -1 -1    0    0    0  501 -0.0000000000e+00 +0.0000000000e+00 +7.6322207684e+01 7.6322207684e+01 0.0000000000e+00 0.0000e+00 1.0000e+00
        1 -1    0    0  501    0 +0.0000000000e+00 -0.0000000000e+00 -2.1790016795e+03 2.1790016795e+03 0.0000000000e+00 0.0000e+00 -1.0000e+00
     -556  1    1    2    0    0 +1.0657888391e+02 -2.0961589504e+02 -1.7881901801e+03 1.8146410119e+03 2.0000000000e+02 0.0000e+00 1.0000e+00
      556  1    1    2    0    0 -1.0657888391e+02 +2.0961589504e+02 -3.1448929173e+02 4.4068287528e+02 2.0000000000e+02 0.0000e+00 -1.0000e+00
<mgrwt>
<rscale>  0 0.81561319E+03</rscale>
<asrwt>0</asrwt>
<pdfrwt beam="2">  1        1 0.33523096E+00 0.81561319E+03</pdfrwt>
<pdfrwt beam="1">  1       -1 0.11741880E-01 0.81561319E+03</pdfrwt>
<totfact> 0.11304927E+02</totfact>
</mgrwt>
</event>
<event>
 4      1 +1.5204000e-02 8.03259800e+02 7.81860800e-03 9.55531100e-02
       -2 -1    0    0    0  501 -0.0000000000e+00 +0.0000000000e+00 +5.5576569673e+01 5.5576569673e+01 0.0000000000e+00 0.0000e+00 1.0000e+00
        2 -1    0    0  501    0 +0.0000000000e+00 -0.0000000000e+00 -2.9024206283e+03 2.9024206283e+03 0.0000000000e+00 0.0000e+00 -1.0000e+00
     -556  1    1    2    0    0 +1.0537640464e+02 -3.3012600706e+01 -2.0701450452e+02 3.0830021658e+02 2.0000000000e+02 0.0000e+00 1.0000e+00
      556  1    1    2    0    0 -1.0537640464e+02 +3.3012600706e+01 -2.6398295541e+03 2.6496969814e+03 2.0000000000e+02 0.0000e+00 -1.0000e+00
<mgrwt>
<rscale>  0 0.80325981E+03</rscale>
<asrwt>0</asrwt>
<pdfrwt beam="2">  1        2 0.44652639E+00 0.80325981E+03</pdfrwt>
<pdfrwt beam="1">  1       -2 0.85502388E-02 0.80325981E+03</pdfrwt>
<totfact> 0.18513705E+02</totfact>
</mgrwt>
</event>
<event>
 4      1 +1.5204000e-02 7.18223700e+02 7.81860800e-03 9.68656500e-02
       -2 -1    0    0    0  501 -0.0000000000e+00 +0.0000000000e+00 +1.0123244486e+02 1.0123244486e+02 0.0000000000e+00 0.0000e+00 1.0000e+00
        2 -1    0    0  501    0 +0.0000000000e+00 -0.0000000000e+00 -1.2739129332e+03 1.2739129332e+03 0.0000000000e+00 0.0000e+00 -1.0000e+00
     -556  1    1    2    0    0 -1.0699194432e+02 +2.7244140827e+02 -4.7652349289e+02 5.9392443657e+02 2.0000000000e+02 0.0000e+00 1.0000e+00
      556  1    1    2    0    0 +1.0699194432e+02 -2.7244140827e+02 -6.9615699545e+02 7.8122094148e+02 2.0000000000e+02 0.0000e+00 -1.0000e+00
<mgrwt>
<rscale>  0 0.71822370E+03</rscale>
<asrwt>0</asrwt>
<pdfrwt beam="2">  1        2 0.19598661E+00 0.71822370E+03</pdfrwt>
<pdfrwt beam="1">  1       -2 0.15574222E-01 0.71822370E+03</pdfrwt>
<totfact> 0.56848039E+02</totfact>
</mgrwt>
</event>
<event>
 4      1 +1.5204000e-02 9.68393400e+02 7.81860800e-03 9.34390600e-02
       -2 -1    0    0    0  501 -0.0000000000e+00 +0.0000000000e+00 +1.3758059519e+02 1.3758059519e+02 0.0000000000e+00 0.0000e+00 1.0000e+00
        2 -1    0    0  501    0 +0.0000000000e+00 -0.0000000000e+00 -1.7040662586e+03 1.7040662586e+03 0.0000000000e+00 0.0000e+00 -1.0000e+00
     -556  1    1    2    0    0 +3.1495577576e+02 -1.5533776061e+01 -1.3694277531e+03 1.4194262256e+03 2.0000000000e+02 0.0000e+00 -1.0000e+00
      556  1    1    2    0    0 -3.1495577576e+02 +1.5533776061e+01 -1.9705791031e+02 4.2222062822e+02 2.0000000000e+02 0.0000e+00 1.0000e+00
<mgrwt>
<rscale>  0 0.96839341E+03</rscale>
<asrwt>0</asrwt>
<pdfrwt beam="2">  1        2 0.26216404E+00 0.96839341E+03</pdfrwt>
<pdfrwt beam="1">  1       -2 0.21166245E-01 0.96839341E+03</pdfrwt>
<totfact> 0.18881186E+02</totfact>
</mgrwt>
</event>
<event>
 4      1 +1.5204000e-02 5.04685000e+02 7.81860800e-03 1.01256300e-01
        3 -1    0    0  501    0 +0.0000000000e+00 +0.0000000000e+00 +1.1366226192e+03 1.1366226192e+03 0.0000000000e+00 0.0000e+00 -1.0000e+00
       -3 -1    0    0    0  501 -0.0000000000e+00 -0.0000000000e+00 -5.6022767262e+01 5.6022767262e+01 0.0000000000e+00 0.0000e+00 1.0000e+00
     -556  1    1    2    0    0 -9.2468363036e+01 +9.6129012875e+01 +7.2159448762e+02 7.6058516278e+02 2.0000000000e+02 0.0000e+00 -1.0000e+00
      556  1    1    2    0    0 +9.2468363036e+01 -9.6129012875e+01 +3.5900536432e+02 4.3206022369e+02 2.0000000000e+02 0.0000e+00 1.0000e+00
<mgrwt>
<rscale>  0 0.50468503E+03</rscale>
<asrwt>0</asrwt>
<pdfrwt beam="1">  1        3 0.17486500E+00 0.50468503E+03</pdfrwt>
<pdfrwt beam="2">  1       -3 0.86188881E-02 0.50468503E+03</pdfrwt>
<totfact> 0.56172894E+01</totfact>
</mgrwt>
</event>
<event>
 4      1 +1.5204000e-02 4.68241800e+02 7.81860800e-03 1.02241800e-01
       -2 -1    0    0    0  501 -0.0000000000e+00 +0.0000000000e+00 +5.7385978285e+01 5.7385978285e+01 0.0000000000e+00 0.0000e+00 -1.0000e+00
        2 -1    0    0  501    0 +0.0000000000e+00 -0.0000000000e+00 -9.5515666235e+02 9.5515666235e+02 0.0000000000e+00 0.0000e+00 1.0000e+00
     -556  1    1    2    0    0 +6.6403558720e+01 -7.2329376657e+01 -6.0439478708e+02 6.4415373164e+02 2.0000000000e+02 0.0000e+00 1.0000e+00
      556  1    1    2    0    0 -6.6403558720e+01 +7.2329376657e+01 -2.9337589699e+02 3.6838890899e+02 2.0000000000e+02 0.0000e+00 -1.0000e+00
<mgrwt>
<rscale>  0 0.46824182E+03</rscale>
<asrwt>0</asrwt>
<pdfrwt beam="2">  1        2 0.14694717E+00 0.46824182E+03</pdfrwt>
<pdfrwt beam="1">  1       -2 0.88286127E-02 0.46824182E+03</pdfrwt>
<totfact> 0.22707862E+03</totfact>
</mgrwt>
</event>
<event>
 4      1 +1.5204000e-02 5.76138900e+02 7.81860800e-03 9.95618500e-02
        1 -1    0    0  501    0 +0.0000000000e+00 +0.0000000000e+00 +3.1002410949e+02 3.1002410949e+02 0.0000000000e+00 0.0000e+00 -1.0000e+00
       -1 -1    0    0    0  501 -0.0000000000e+00 -0.0000000000e+00 -2.6766950954e+02 2.6766950954e+02 0.0000000000e+00 0.0000e+00 1.0000e+00
     -556  1    1    2    0    0 +4.7269595257e+01 +2.7684458869e+01 -1.7932018648e+02 2.7414699192e+02 2.0000000000e+02 0.0000e+00 1.0000e+00
      556  1    1    2    0    0 -4.7269595257e+01 -2.7684458869e+01 +2.2167478642e+02 3.0354662712e+02 2.0000000000e+02 0.0000e+00 -1.0000e+00
<mgrwt>
<rscale>  0 0.57613888E+03</rscale>
<asrwt>0</asrwt>
<pdfrwt beam="1">  1        1 0.47696017E-01 0.57613888E+03</pdfrwt>
<pdfrwt beam="2">  1       -1 0.41179925E-01 0.57613888E+03</pdfrwt>
<totfact> 0.49042205E+02</totfact>
</mgrwt>
</event>
<event>
 4      1 +1.5204000e-02 4.47999700e+02 7.81860800e-03 1.02832000e-01
        1 -1    0    0  501    0 +0.0000000000e+00 +0.0000000000e+00 +2.3731479096e+03 2.3731479096e+03 0.0000000000e+00 0.0000e+00 -1.0000e+00
       -1 -1    0    0    0  501 -0.0000000000e+00 -0.0000000000e+00 -2.1143194929e+01 2.1143194929e+01 0.0000000000e+00 0.0000e+00 1.0000e+00
     -556  1    1    2    0    0 +2.3132971222e+01 +6.0099114052e+01 +1.5909735617e+03 1.6047878090e+03 2.0000000000e+02 0.0000e+00 -1.0000e+00
      556  1    1    2    0    0 -2.3132971222e+01 -6.0099114052e+01 +7.6103115298e+02 7.8950329555e+02 2.0000000000e+02 0.0000e+00 1.0000e+00
<mgrwt>
<rscale>  0 0.44799968E+03</rscale>
<asrwt>0</asrwt>
<pdfrwt beam="1">  1        1 0.36509947E+00 0.44799968E+03</pdfrwt>
<pdfrwt beam="2">  1       -1 0.32528011E-02 0.44799968E+03</pdfrwt>
<totfact> 0.63052750E+02</totfact>
</mgrwt>
</event>
<event>
 4      1 +1.5204000e-02 4.71683000e+02 7.81860800e-03 1.02144600e-01
       -1 -1    0    0    0  501 -0.0000000000e+00 +0.0000000000e+00 +8.8162124555e+01 8.8162124555e+01 0.0000000000e+00 0.0000e+00 1.0000e+00
        1 -1    0    0  501    0 +0.0000000000e+00 -0.0000000000e+00 -6.3089700225e+02 6.3089700225e+02 0.0000000000e+00 0.0000e+00 -1.0000e+00
     -556  1    1    2    0    0 +8.0711512509e+01 +9.0207183663e+01 -3.1883493125e+02 3.9535730374e+02 2.0000000000e+02 0.0000e+00 1.0000e+00
      556  1    1    2    0    0 -8.0711512509e+01 -9.0207183663e+01 -2.2389994644e+02 3.2370182306e+02 2.0000000000e+02 0.0000e+00 -1.0000e+00
<mgrwt>
<rscale>  0 0.47168303E+03</rscale>
<asrwt>0</asrwt>
<pdfrwt beam="2">  1        1 0.97061080E-01 0.47168303E+03</pdfrwt>
<pdfrwt beam="1">  1       -1 0.13563403E-01 0.47168303E+03</pdfrwt>
<totfact> 0.12379661E+03</totfact>
</mgrwt>
</event>
<event>
 4      1 +1.5204000e-02 9.58844100e+02 7.81860800e-03 9.35487200e-02
       -2 -1    0    0    0  501 -0.0000000000e+00 +0.0000000000e+00 +1.0515819859e+02 1.0515819859e+02 0.0000000000e+00 0.0000e+00 1.0000e+00
        2 -1    0    0  501    0 +0.0000000000e+00 -0.0000000000e+00 -2.1857117636e+03 2.1857117636e+03 0.0000000000e+00 0.0000e+00 -1.0000e+00
     -556  1    1    2    0    0 -7.2555193755e+01 -4.2559952643e+01 -1.8855805801e+01 2.1778693056e+02 2.0000000000e+02 0.0000e+00 1.0000e+00
      556  1    1    2    0    0 +7.2555193755e+01 +4.2559952643e+01 -2.0616977592e+03 2.0730830316e+03 2.0000000000e+02 0.0000e+00 -1.0000e+00
<mgrwt>
<rscale>  0 0.95884412E+03</rscale>
<asrwt>0</asrwt>
<pdfrwt beam="2">  1        2 0.33626334E+00 0.95884412E+03</pdfrwt>
<pdfrwt beam="1">  1       -2 0.16178185E-01 0.95884412E+03</pdfrwt>
<totfact> 0.16374420E+02</totfact>
</mgrwt>
</event>
<event>
 4      1 +1.5204000e-02 5.43134000e+02 7.81860800e-03 1.00309600e-01
       -2 -1    0    0    0  501 -0.0000000000e+00 +0.0000000000e+00 +4.0120428128e+01 4.0120428128e+01 0.0000000000e+00 0.0000e+00 1.0000e+00
        2 -1    0    0  501    0 +0.0000000000e+00 -0.0000000000e+00 -1.8381814465e+03 1.8381814465e+03 0.0000000000e+00 0.0000e+00 -1.0000e+00
     -556  1    1    2    0    0 +8.4194893341e+01 +1.5310904838e+02 -7.0286827430e+02 7.5136873223e+02 2.0000000000e+02 0.0000e+00 1.0000e+00
      556  1    1    2    0    0 -8.4194893341e+01 -1.5310904838e+02 -1.0951927440e+03 1.1269331423e+03 2.0000000000e+02 0.0000e+00 -1.0000e+00
<mgrwt>
<rscale>  0 0.54313397E+03</rscale>
<asrwt>0</asrwt>
<pdfrwt beam="2">  1        2 0.28279720E+00 0.54313397E+03</pdfrwt>
<pdfrwt beam="1">  1       -2 0.61723725E-02 0.54313397E+03</pdfrwt>
<totfact> 0.12570034E+03</totfact>
</mgrwt>
</event>
<event>
 4      1 +1.5204000e-02 5.32476300e+02 7.81860800e-03 1.00563300e-01
        1 -1    0    0  501    0 +0.0000000000e+00 +0.0000000000e+00 +1.4220235267e+03 1.4220235267e+03 0.0000000000e+00 0.0000e+00 -1.0000e+00
       -1 -1    0    0    0  501 -0.0000000000e+00 -0.0000000000e+00 -4.9846393245e+01 4.9846393245e+01 0.0000000000e+00 0.0000e+00 1.0000e+00
     -556  1    1    2    0    0 -1.3421254189e+02 -4.8891815631e+01 +9.6905563032e+02 9.9973608052e+02 2.0000000000e+02 0.0000e+00 -1.0000e+00
      556  1    1    2    0    0 +1.3421254189e+02 +4.8891815631e+01 +4.0312150309e+02 4.7213383938e+02 2.0000000000e+02 0.0000e+00 1.0000e+00
<mgrwt>
<rscale>  0 0.53247627E+03</rscale>
<asrwt>0</asrwt>
<pdfrwt beam="1">  1        1 0.21877282E+00 0.53247627E+03</pdfrwt>
<pdfrwt beam="2">  1       -1 0.76686770E-02 0.53247627E+03</pdfrwt>
<totfact> 0.72908581E+02</totfact>
</mgrwt>
</event>
<event>
 4      1 +1.5204000e-02 5.47832800e+02 7.81860800e-03 1.00199700e-01
        1 -1    0    0  501    0 +0.0000000000e+00 +0.0000000000e+00 +6.5282285219e+02 6.5282285219e+02 0.0000000000e+00 0.0000e+00 -1.0000e+00
       -1 -1    0    0    0  501 -0.0000000000e+00 -0.0000000000e+00 -1.1493193544e+02 1.1493193544e+02 0.0000000000e+00 0.0000e+00 1.0000e+00
     -556  1    1    2    0    0 +1.0531233848e+02 -4.6463338464e+00 +5.2206900607e+01 2.3202982034e+02 2.0000000000e+02 0.0000e+00 1.0000e+00
      556  1    1    2    0    0 -1.0531233848e+02 +4.6463338464e+00 +4.8568401614e+02 5.3572496729e+02 2.0000000000e+02 0.0000e+00 -1.0000e+00
<mgrwt>
<rscale>  0 0.54783280E+03</rscale>
<asrwt>0</asrwt>
<pdfrwt beam="1">  1        1 0.10043428E+00 0.54783280E+03</pdfrwt>
<pdfrwt beam="2">  1       -1 0.17681837E-01 0.54783280E+03</pdfrwt>
<totfact> 0.76606634E+02</totfact>
</mgrwt>
</event>
<event>
 4      1 +1.5204000e-02 5.43248300e+02 7.81860800e-03 1.00306900e-01
       -1 -1    0    0    0  501 -0.0000000000e+00 +0.0000000000e+00 +4.0345213452e+02 4.0345213452e+02 0.0000000000e+00 0.0000e+00 1.0000e+00
        1 -1    0    0  501    0 +0.0000000000e+00 -0.0000000000e+00 -1.8287095752e+02 1.8287095752e+02 0.0000000000e+00 0.0000e+00 -1.0000e+00
     -556  1    1    2    0    0 -1.3022172481e+01 +3.3610237677e+01 +3.0480405096e+02 3.6633964368e+02 2.0000000000e+02 0.0000e+00 1.0000e+00
      556  1    1    2    0    0 +1.3022172481e+01 -3.3610237677e+01 -8.4222873955e+01 2.1998344835e+02 2.0000000000e+02 0.0000e+00 -1.0000e+00
<mgrwt>
<rscale>  0 0.54324830E+03</rscale>
<asrwt>0</asrwt>
<pdfrwt beam="2">  1        1 0.28133993E-01 0.54324830E+03</pdfrwt>
<pdfrwt beam="1">  1       -1 0.62069559E-01 0.54324830E+03</pdfrwt>
<totfact> 0.44585032E+02</totfact>
</mgrwt>
</event>
<event>
 4      1 +1.5204000e-02 5.68551500e+02 7.81860800e-03 9.97288900e-02
       -2 -1    0    0    0  501 -0.0000000000e+00 +0.0000000000e+00 +2.3712514755e+01 2.3712514755e+01 0.0000000000e+00 0.0000e+00 1.0000e+00
        2 -1    0    0  501    0 +0.0000000000e+00 -0.0000000000e+00 -3.4080194459e+03 3.4080194459e+03 0.0000000000e+00 0.0000e+00 -1.0000e+00
     -556  1    1    2    0    0 +7.9310016941e+01 -3.0404904094e+01 -5.8578098505e+02 6.2478308190e+02 2.0000000000e+02 0.0000e+00 1.0000e+00
      556  1    1    2    0    0 -7.9310016941e+01 +3.0404904094e+01 -2.7985259461e+03 2.8069488787e+03 2.0000000000e+02 0.0000e+00 -1.0000e+00
<mgrwt>
<rscale>  0 0.56855153E+03</rscale>
<asrwt>0</asrwt>
<pdfrwt beam="2">  1        2 0.52431089E+00 0.56855153E+03</pdfrwt>
<pdfrwt beam="1">  1       -2 0.36480777E-02 0.56855153E+03</pdfrwt>
<totfact> 0.34703680E+02</totfact>
</mgrwt>
</event>
<event>
 4      1 +1.5204000e-02 5.94211200e+02 7.81860800e-03 9.91748900e-02
        2 -1    0    0  501    0 +0.0000000000e+00 +0.0000000000e+00 +3.9051904174e+03 3.9051904174e+03 0.0000000000e+00 0.0000e+00 1.0000e+00
       -2 -1    0    0    0  501 -0.0000000000e+00 -0.0000000000e+00 -2.2603693167e+01 2.2603693167e+01 0.0000000000e+00 0.0000e+00 -1.0000e+00
     -556  1    1    2    0    0 +1.2779061715e+00 +8.2592572291e+01 +3.2870379218e+03 3.2941526172e+03 2.0000000000e+02 0.0000e+00 1.0000e+00
      556  1    1    2    0    0 -1.2779061715e+00 -8.2592572291e+01 +5.9554880247e+02 6.3364149340e+02 2.0000000000e+02 0.0000e+00 -1.0000e+00
<mgrwt>
<rscale>  0 0.59421116E+03</rscale>
<asrwt>0</asrwt>
<pdfrwt beam="1">  1        2 0.60079799E+00 0.59421116E+03</pdfrwt>
<pdfrwt beam="2">  1       -2 0.34774944E-02 0.59421116E+03</pdfrwt>
<totfact> 0.16540317E+02</totfact>
</mgrwt>
</event>
<event>
 4      1 +1.5204000e-02 6.22779100e+02 7.81860800e-03 9.85924200e-02
       -2 -1    0    0    0  501 -0.0000000000e+00 +0.0000000000e+00 +7.3438436600e+01 7.3438436600e+01 0.0000000000e+00 0.0000e+00 1.0000e+00
        2 -1    0    0  501    0 +0.0000000000e+00 -0.0000000000e+00 -1.3203364335e+03 1.3203364335e+03 0.0000000000e+00 0.0000e+00 -1.0000e+00
     -556  1    1    2    0    0 +2.1723183601e+01 +1.8927861441e+02 -9.4516890247e+02 9.8470429306e+02 2.0000000000e+02 0.0000e+00 -1.0000e+00
      556  1    1    2    0    0 -2.1723183601e+01 -1.8927861441e+02 -3.0172909445e+02 4.0907057705e+02 2.0000000000e+02 0.0000e+00 1.0000e+00
<mgrwt>
<rscale>  0 0.62277907E+03</rscale>
<asrwt>0</asrwt>
<pdfrwt beam="2">  1        2 0.20312869E+00 0.62277907E+03</pdfrwt>
<pdfrwt beam="1">  1       -2 0.11298220E-01 0.62277907E+03</pdfrwt>
<totfact> 0.91681522E+02</totfact>
</mgrwt>
</event>
<event>
 4      1 +1.5204000e-02 4.91899000e+02 7.81860800e-03 1.01591500e-01
       -2 -1    0    0    0  501 -0.0000000000e+00 +0.0000000000e+00 +7.7029750495e+01 7.7029750495e+01 0.0000000000e+00 0.0000e+00 1.0000e+00
        2 -1    0    0  501    0 +0.0000000000e+00 -0.0000000000e+00 -7.8529590226e+02 7.8529590226e+02 0.0000000000e+00 0.0000e+00 -1.0000e+00
     -556  1    1    2    0    0 +3.2998074769e+01 -1.2141188660e+02 -4.7382225870e+02 5.2946883948e+02 2.0000000000e+02 0.0000e+00 -1.0000e+00
      556  1    1    2    0    0 -3.2998074769e+01 +1.2141188660e+02 -2.3444389307e+02 3.3285681327e+02 2.0000000000e+02 0.0000e+00 1.0000e+00
<mgrwt>
<rscale>  0 0.49189896E+03</rscale>
<asrwt>0</asrwt>
<pdfrwt beam="2">  1        2 0.12081476E+00 0.49189896E+03</pdfrwt>
<pdfrwt beam="1">  1       -2 0.11850730E-01 0.49189896E+03</pdfrwt>
<totfact> 0.18375568E+03</totfact>
</mgrwt>
</event>
<event>
 4      1 +1.5204000e-02 5.44784900e+02 7.81860800e-03 1.00270800e-01
        2 -1    0    0  501    0 +0.0000000000e+00 +0.0000000000e+00 +1.4725070823e+03 1.4725070823e+03 0.0000000000e+00 0.0000e+00 -1.0000e+00
       -2 -1    0    0    0  501 -0.0000000000e+00 -0.0000000000e+00 -5.0388657816e+01 5.0388657816e+01 0.0000000000e+00 0.0000e+00 1.0000e+00
     -556  1    1    2    0    0 +4.1648445528e+01 -1.2427228550e+02 +3.4637413477e+02 4.2089575336e+02 2.0000000000e+02 0.0000e+00 1.0000e+00
      556  1    1    2    0    0 -4.1648445528e+01 +1.2427228550e+02 +1.0757442897e+03 1.1019999867e+03 2.0000000000e+02 0.0000e+00 -1.0000e+00
<mgrwt>
<rscale>  0 0.54478493E+03</rscale>
<asrwt>0</asrwt>
<pdfrwt beam="1">  1        2 0.22653952E+00 0.54478493E+03</pdfrwt>
<pdfrwt beam="2">  1       -2 0.77521023E-02 0.54478493E+03</pdfrwt>
<totfact> 0.13870501E+03</totfact>
</mgrwt>
</event>
<event>
 4      1 +1.5204000e-02 7.21175500e+02 7.81860800e-03 9.68168900e-02
        2 -1    0    0  501    0 +0.0000000000e+00 +0.0000000000e+00 +1.1517990085e+03 1.1517990085e+03 0.0000000000e+00 0.0000e+00 -1.0000e+00
       -2 -1    0    0    0  501 -0.0000000000e+00 -0.0000000000e+00 -1.1288733969e+02 1.1288733969e+02 0.0000000000e+00 0.0000e+00 1.0000e+00
     -556  1    1    2    0    0 +2.8777137952e+02 -7.9929078561e+01 +4.6916252612e+02 5.9102834144e+02 2.0000000000e+02 0.0000e+00 1.0000e+00
      556  1    1    2    0    0 -2.8777137952e+02 +7.9929078561e+01 +5.6974914273e+02 6.7365800679e+02 2.0000000000e+02 0.0000e+00 -1.0000e+00
<mgrwt>
<rscale>  0 0.72117550E+03</rscale>
<asrwt>0</asrwt>
<pdfrwt beam="1">  1        2 0.17719984E+00 0.72117550E+03</pdfrwt>
<pdfrwt beam="2">  1       -2 0.17367284E-01 0.72117550E+03</pdfrwt>
<totfact> 0.55691562E+02</totfact>
</mgrwt>
</event>
<event>
 4      1 +1.5204000e-02 1.07890100e+03 7.81860800e-03 9.22600400e-02
       -2 -1    0    0    0  501 -0.0000000000e+00 +0.0000000000e+00 +5.6546448118e+02 5.6546448118e+02 0.0000000000e+00 0.0000e+00 1.0000e+00
        2 -1    0    0  501    0 +0.0000000000e+00 -0.0000000000e+00 -5.1463324650e+02 5.1463324650e+02 0.0000000000e+00 0.0000e+00 -1.0000e+00
     -556  1    1    2    0    0 -4.9770867363e+01 +2.8137710861e+02 -3.8657046186e+02 5.2066009879e+02 2.0000000000e+02 0.0000e+00 -1.0000e+00
      556  1    1    2    0    0 +4.9770867363e+01 -2.8137710861e+02 +4.3740169653e+02 5.5943762889e+02 2.0000000000e+02 0.0000e+00 1.0000e+00
<mgrwt>
<rscale>  0 0.10789010E+04</rscale>
<asrwt>0</asrwt>
<pdfrwt beam="2">  1        2 0.79174346E-01 0.10789010E+04</pdfrwt>
<pdfrwt beam="1">  1       -2 0.86994535E-01 0.10789010E+04</pdfrwt>
<totfact> 0.67670973E+01</totfact>
</mgrwt>
</event>
<event>
 4      1 +1.5204000e-02 6.28569000e+02 7.81860800e-03 9.84784500e-02
       -4 -1    0    0    0  501 -0.0000000000e+00 +0.0000000000e+00 +1.4451573025e+03 1.4451573025e+03 0.0000000000e+00 0.0000e+00 1.0000e+00
        4 -1    0    0  501    0 +0.0000000000e+00 -0.0000000000e+00 -6.8348776898e+01 6.8348776898e+01 0.0000000000e+00 0.0000e+00 -1.0000e+00
     -556  1    1    2    0    0 +2.0725957245e+02 -5.1585526896e+01 +4.1221172567e+02 5.0550579002e+02 2.0000000000e+02 0.0000e+00 -1.0000e+00
      556  1    1    2    0    0 -2.0725957245e+02 +5.1585526896e+01 +9.6459679995e+02 1.0080002894e+03 2.0000000000e+02 0.0000e+00 1.0000e+00
<mgrwt>
<rscale>  0 0.62856896E+03</rscale>
<asrwt>0</asrwt>
<pdfrwt beam="2">  1        4 0.10515197E-01 0.62856896E+03</pdfrwt>
<pdfrwt beam="1">  1       -4 0.22233187E+00 0.62856896E+03</pdfrwt>
<totfact> 0.13830594E+01</totfact>
</mgrwt>
</event>
<event>
 4      1 +1.5204000e-02 7.57427900e+02 7.81860800e-03 9.62376900e-02
        2 -1    0    0  501    0 +0.0000000000e+00 +0.0000000000e+00 +1.6672718539e+02 1.6672718539e+02 0.0000000000e+00 0.0000e+00 -1.0000e+00
       -2 -1    0    0    0  501 -0.0000000000e+00 -0.0000000000e+00 -8.6023307301e+02 8.6023307301e+02 0.0000000000e+00 0.0000e+00 1.0000e+00
     -556  1    1    2    0    0 -2.4142187073e+02 -2.0987795560e+02 -3.0196950896e+02 4.8323789199e+02 2.0000000000e+02 0.0000e+00 -1.0000e+00
      556  1    1    2    0    0 +2.4142187073e+02 +2.0987795560e+02 -3.9153637867e+02 5.4372236641e+02 2.0000000000e+02 0.0000e+00 1.0000e+00
<mgrwt>
<rscale>  0 0.75742786E+03</rscale>
<asrwt>0</asrwt>
<pdfrwt beam="1">  1        2 0.25650337E-01 0.75742786E+03</pdfrwt>
<pdfrwt beam="2">  1       -2 0.13234355E+00 0.75742786E+03</pdfrwt>
<totfact> 0.89140787E+01</totfact>
</mgrwt>
</event>
<event>
 4      1 +1.5204000e-02 8.21805600e+02 7.81860800e-03 9.52898000e-02
        2 -1    0    0  501    0 +0.0000000000e+00 +0.0000000000e+00 +1.1801290913e+03 1.1801290913e+03 0.0000000000e+00 0.0000e+00 1.0000e+00
       -2 -1    0    0    0  501 -0.0000000000e+00 -0.0000000000e+00 -1.4307004843e+02 1.4307004843e+02 0.0000000000e+00 0.0000e+00 -1.0000e+00
     -556  1    1    2    0    0 -5.5323588943e+01 +2.9068481081e+02 +1.9138436407e+02 4.0519912826e+02 2.0000000000e+02 0.0000e+00 -1.0000e+00
      556  1    1    2    0    0 +5.5323588943e+01 -2.9068481081e+02 +8.4567467884e+02 9.1800001153e+02 2.0000000000e+02 0.0000e+00 1.0000e+00
<mgrwt>
<rscale>  0 0.82180564E+03</rscale>
<asrwt>0</asrwt>
<pdfrwt beam="1">  1        2 0.18155832E+00 0.82180564E+03</pdfrwt>
<pdfrwt beam="2">  1       -2 0.22010777E-01 0.82180564E+03</pdfrwt>
<totfact> 0.35248210E+02</totfact>
</mgrwt>
</event>
<event>
 4      1 +1.5204000e-02 4.41819800e+02 7.81860800e-03 1.03019000e-01
       -1 -1    0    0    0  501 -0.0000000000e+00 +0.0000000000e+00 +9.3800864237e+01 9.3800864237e+01 0.0000000000e+00 0.0000e+00 1.0000e+00
        1 -1    0    0  501    0 +0.0000000000e+00 -0.0000000000e+00 -5.2026368196e+02 5.2026368196e+02 0.0000000000e+00 0.0000e+00 -1.0000e+00
     -556  1    1    2    0    0 +5.3807133757e+01 +7.5276585163e+01 -2.3473648465e+02 3.2196737279e+02 2.0000000000e+02 0.0000e+00 -1.0000e+00
      556  1    1    2    0    0 -5.3807133757e+01 -7.5276585163e+01 -1.9172633307e+02 2.9209717341e+02 2.0000000000e+02 0.0000e+00 1.0000e+00
<mgrwt>
<rscale>  0 0.44181980E+03</rscale>
<asrwt>0</asrwt>
<pdfrwt beam="2">  1        1 0.80040567E-01 0.44181980E+03</pdfrwt>
<pdfrwt beam="1">  1       -1 0.14430902E-01 0.44181980E+03</pdfrwt>
<totfact> 0.14683458E+03</totfact>
</mgrwt>
</event>
<event>
 4      1 +1.5204000e-02 7.44074300e+02 7.81860800e-03 9.64469300e-02
       -2 -1    0    0    0  501 -0.0000000000e+00 +0.0000000000e+00 +1.3994395571e+02 1.3994395571e+02 0.0000000000e+00 0.0000e+00 1.0000e+00
        2 -1    0    0  501    0 +0.0000000000e+00 -0.0000000000e+00 -9.8905040449e+02 9.8905040449e+02 0.0000000000e+00 0.0000e+00 -1.0000e+00
     -556  1    1    2    0    0 +2.1768642661e+02 -1.7970493775e+02 -6.3221128683e+02 7.2067493101e+02 2.0000000000e+02 0.0000e+00 -1.0000e+00
      556  1    1    2    0    0 -2.1768642661e+02 +1.7970493775e+02 -2.1689516194e+02 4.0831942919e+02 2.0000000000e+02 0.0000e+00 1.0000e+00
<mgrwt>
<rscale>  0 0.74407426E+03</rscale>
<asrwt>0</asrwt>
<pdfrwt beam="2">  1        2 0.15216161E+00 0.74407426E+03</pdfrwt>
<pdfrwt beam="1">  1       -2 0.21529838E-01 0.74407426E+03</pdfrwt>
<totfact> 0.48260260E+02</totfact>
</mgrwt>
</event>
<event>
 4      1 +1.5204000e-02 8.87200000e+02 7.81860800e-03 9.44172500e-02
       -2 -1    0    0    0  501 -0.0000000000e+00 +0.0000000000e+00 +1.6654773809e+02 1.6654773809e+02 0.0000000000e+00 0.0000e+00 1.0000e+00
        2 -1    0    0  501    0 +0.0000000000e+00 -0.0000000000e+00 -1.1815289157e+03 1.1815289157e+03 0.0000000000e+00 0.0000e+00 -1.0000e+00
     -556  1    1    2    0    0 -1.1369764227e+02 +4.4676850612e+01 -1.0797851854e+03 1.1049249845e+03 2.0000000000e+02 0.0000e+00 -1.0000e+00
      556  1    1    2    0    0 +1.1369764227e+02 -4.4676850612e+01 +6.4804007790e+01 2.4315166926e+02 2.0000000000e+02 0.0000e+00 1.0000e+00
<mgrwt>
<rscale>  0 0.88720002E+03</rscale>
<asrwt>0</asrwt>
<pdfrwt beam="2">  1        2 0.18177369E+00 0.88720002E+03</pdfrwt>
<pdfrwt beam="1">  1       -2 0.25622728E-01 0.88720002E+03</pdfrwt>
<totfact> 0.26695447E+02</totfact>
</mgrwt>
</event>
<event>
 4      1 +1.5204000e-02 4.84648700e+02 7.81860800e-03 1.01786500e-01
       -3 -1    0    0    0  501 -0.0000000000e+00 +0.0000000000e+00 +3.2849789223e+02 3.2849789223e+02 0.0000000000e+00 0.0000e+00 1.0000e+00
        3 -1    0    0  501    0 +0.0000000000e+00 -0.0000000000e+00 -1.7875639942e+02 1.7875639942e+02 0.0000000000e+00 0.0000e+00 -1.0000e+00
     -556  1    1    2    0    0 +4.2557522175e-01 +2.7752677606e+01 +2.1510026246e+02 2.9502290613e+02 2.0000000000e+02 0.0000e+00 1.0000e+00
      556  1    1    2    0    0 -4.2557522175e-01 -2.7752677606e+01 -6.5358769651e+01 2.1223138552e+02 2.0000000000e+02 0.0000e+00 -1.0000e+00
<mgrwt>
<rscale>  0 0.48464874E+03</rscale>
<asrwt>0</asrwt>
<pdfrwt beam="2">  1        3 0.27500984E-01 0.48464874E+03</pdfrwt>
<pdfrwt beam="1">  1       -3 0.50538137E-01 0.48464874E+03</pdfrwt>
<totfact> 0.12892122E+02</totfact>
</mgrwt>
</event>
<event>
 4      1 +1.5204000e-02 4.91393600e+02 7.81860800e-03 1.01605000e-01
        2 -1    0    0  501    0 +0.0000000000e+00 +0.0000000000e+00 +2.3050147185e+02 2.3050147185e+02 0.0000000000e+00 0.0000e+00 -1.0000e+00
       -2 -1    0    0    0  501 -0.0000000000e+00 -0.0000000000e+00 -2.6189386132e+02 2.6189386132e+02 0.0000000000e+00 0.0000e+00 1.0000e+00
     -556  1    1    2    0    0 -1.3257851764e+02 +3.3635039101e+01 +2.5112017383e+01 2.4359596181e+02 2.0000000000e+02 0.0000e+00 -1.0000e+00
      556  1    1    2    0    0 +1.3257851764e+02 -3.3635039101e+01 -5.6504406846e+01 2.4879937136e+02 2.0000000000e+02 0.0000e+00 1.0000e+00
<mgrwt>
<rscale>  0 0.49139361E+03</rscale>
<asrwt>0</asrwt>
<pdfrwt beam="1">  1        2 0.35461765E-01 0.49139361E+03</pdfrwt>
<pdfrwt beam="2">  1       -2 0.40291363E-01 0.49139361E+03</pdfrwt>
<totfact> 0.86201868E+02</totfact>
</mgrwt>
</event>
<event>
 4      1 +1.5204000e-02 5.59940500e+02 7.81860800e-03 9.99218900e-02
       -1 -1    0    0    0  501 -0.0000000000e+00 +0.0000000000e+00 +2.4405098377e+02 2.4405098377e+02 0.0000000000e+00 0.0000e+00 1.0000e+00
        1 -1    0    0  501    0 +0.0000000000e+00 -0.0000000000e+00 -3.2117607183e+02 3.2117607183e+02 0.0000000000e+00 0.0000e+00 -1.0000e+00
     -556  1    1    2    0    0 -1.6998354312e+02 +2.6225967118e+01 +5.6137524255e+01 2.6969172755e+02 2.0000000000e+02 0.0000e+00 -1.0000e+00
      556  1    1    2    0    0 +1.6998354312e+02 -2.6225967118e+01 -1.3326261231e+02 2.9553532804e+02 2.0000000000e+02 0.0000e+00 1.0000e+00
<mgrwt>
<rscale>  0 0.55994048E+03</rscale>
<asrwt>0</asrwt>
<pdfrwt beam="2">  1        1 0.49411704E-01 0.55994048E+03</pdfrwt>
<pdfrwt beam="1">  1       -1 0.37546305E-01 0.55994048E+03</pdfrwt>
<totfact> 0.55372171E+02</totfact>
</mgrwt>
</event>
<event>
 4      1 +1.5204000e-02 5.58015000e+02 7.81860800e-03 9.99655600e-02
        2 -1    0    0  501    0 +0.0000000000e+00 +0.0000000000e+00 +1.1206923461e+03 1.1206923461e+03 0.0000000000e+00 0.0000e+00 -1.0000e+00
       -2 -1    0    0    0  501 -0.0000000000e+00 -0.0000000000e+00 -6.9461699997e+01 6.9461699997e+01 0.0000000000e+00 0.0000e+00 1.0000e+00
     -556  1    1    2    0    0 +2.2216275403e+00 +1.4180975033e+02 +8.0961298262e+02 8.4592441893e+02 2.0000000000e+02 0.0000e+00 -1.0000e+00
      556  1    1    2    0    0 -2.2216275403e+00 -1.4180975033e+02 +2.4161766352e+02 3.4422962720e+02 2.0000000000e+02 0.0000e+00 1.0000e+00
<mgrwt>
<rscale>  0 0.55801504E+03</rscale>
<asrwt>0</asrwt>
<pdfrwt beam="1">  1        2 0.17241419E+00 0.55801504E+03</pdfrwt>
<pdfrwt beam="2">  1       -2 0.10686416E-01 0.55801504E+03</pdfrwt>
<totfact> 0.13162818E+03</totfact>
</mgrwt>
</event>
<event>
 4      1 +1.5204000e-02 4.59742500e+02 7.81860800e-03 1.02485600e-01
        3 -1    0    0  501    0 +0.0000000000e+00 +0.0000000000e+00 +2.3645378106e+02 2.3645378106e+02 0.0000000000e+00 0.0000e+00 -1.0000e+00
       -3 -1    0    0    0  501 -0.0000000000e+00 -0.0000000000e+00 -2.2347200782e+02 2.2347200782e+02 0.0000000000e+00 0.0000e+00 1.0000e+00
     -556  1    1    2    0    0 +2.3174759118e+01 -8.0420306090e+01 -6.9935284211e+01 2.2780570465e+02 2.0000000000e+02 0.0000e+00 1.0000e+00
      556  1    1    2    0    0 -2.3174759118e+01 +8.0420306090e+01 +8.2917057449e+01 2.3212008424e+02 2.0000000000e+02 0.0000e+00 -1.0000e+00
<mgrwt>
<rscale>  0 0.45974254E+03</rscale>
<asrwt>0</asrwt>
<pdfrwt beam="1">  1        3 0.36377505E-01 0.45974254E+03</pdfrwt>
<pdfrwt beam="2">  1       -3 0.34380309E-01 0.45974254E+03</pdfrwt>
<totfact> 0.16196981E+02</totfact>
</mgrwt>
</event>
<event>
 4      1 +1.5204000e-02 7.40506700e+02 7.81860800e-03 9.65036300e-02
        2 -1    0    0  501    0 +0.0000000000e+00 +0.0000000000e+00 +9.8673929378e+02 9.8673929378e+02 0.0000000000e+00 0.0000e+00 -1.0000e+00
       -2 -1    0    0    0  501 -0.0000000000e+00 -0.0000000000e+00 -1.3892983466e+02 1.3892983466e+02 0.0000000000e+00 0.0000e+00 1.0000e+00
     -556  1    1    2    0    0 -2.0730574830e+01 +1.0370865442e+02 +8.6944211070e+02 8.9839569545e+02 2.0000000000e+02 0.0000e+00 -1.0000e+00
      556  1    1    2    0    0 +2.0730574830e+01 -1.0370865442e+02 -2.1632651581e+01 2.2727343300e+02 2.0000000000e+02 0.0000e+00 1.0000e+00
<mgrwt>
<rscale>  0 0.74050666E+03</rscale>
<asrwt>0</asrwt>
<pdfrwt beam="1">  1        2 0.15180604E+00 0.74050666E+03</pdfrwt>
<pdfrwt beam="2">  1       -2 0.21373821E-01 0.74050666E+03</pdfrwt>
<totfact> 0.49058312E+02</totfact>
</mgrwt>
</event>
<event>
 4      1 +1.5204000e-02 4.73159500e+02 7.81860800e-03 1.02103200e-01
        1 -1    0    0  501    0 +0.0000000000e+00 +0.0000000000e+00 +1.4093592701e+03 1.4093592701e+03 0.0000000000e+00 0.0000e+00 -1.0000e+00
       -1 -1    0    0    0  501 -0.0000000000e+00 -0.0000000000e+00 -3.9713067827e+01 3.9713067827e+01 0.0000000000e+00 0.0000e+00 1.0000e+00
     -556  1    1    2    0    0 -6.4542906071e+01 -6.2014537093e+01 +4.1161402490e+02 4.6630214993e+02 2.0000000000e+02 0.0000e+00 1.0000e+00
      556  1    1    2    0    0 +6.4542906071e+01 +6.2014537093e+01 +9.5803217735e+02 9.8277018798e+02 2.0000000000e+02 0.0000e+00 -1.0000e+00
<mgrwt>
<rscale>  0 0.47315951E+03</rscale>
<asrwt>0</asrwt>
<pdfrwt beam="1">  1        1 0.21682446E+00 0.47315951E+03</pdfrwt>
<pdfrwt beam="2">  1       -1 0.61097038E-02 0.47315951E+03</pdfrwt>
<totfact> 0.10592903E+03</totfact>
</mgrwt>
</event>
<event>
 4      1 +1.5204000e-02 6.97996400e+02 7.81860800e-03 9.72066500e-02
        1 -1    0    0  501    0 +0.0000000000e+00 +0.0000000000e+00 +7.1011295828e+01 7.1011295828e+01 0.0000000000e+00 0.0000e+00 -1.0000e+00
       -1 -1    0    0    0  501 -0.0000000000e+00 -0.0000000000e+00 -1.7152163365e+03 1.7152163365e+03 0.0000000000e+00 0.0000e+00 1.0000e+00
     -556  1    1    2    0    0 -1.9736384280e+02 -1.9819823463e+02 -6.6931227844e+02 7.5247189498e+02 2.0000000000e+02 0.0000e+00 -1.0000e+00
      556  1    1    2    0    0 +1.9736384280e+02 +1.9819823463e+02 -9.7489276220e+02 1.0337557373e+03 2.0000000000e+02 0.0000e+00 1.0000e+00
<mgrwt>
<rscale>  0 0.69799637E+03</rscale>
<asrwt>0</asrwt>
<pdfrwt beam="1">  1        1 0.10924816E-01 0.69799637E+03</pdfrwt>
<pdfrwt beam="2">  1       -1 0.26387941E+00 0.69799637E+03</pdfrwt>
<totfact> 0.34939862E+01</totfact>
</mgrwt>
</event>
<event>
 4      1 +1.5204000e-02 5.89300600e+02 7.81860800e-03 9.92785600e-02
       -2 -1    0    0    0  501 -0.0000000000e+00 +0.0000000000e+00 +2.2213207457e+02 2.2213207457e+02 0.0000000000e+00 0.0000e+00 1.0000e+00
        2 -1    0    0  501    0 +0.0000000000e+00 -0.0000000000e+00 -3.9084313238e+02 3.9084313238e+02 0.0000000000e+00 0.0000e+00 -1.0000e+00
     -556  1    1    2    0    0 +1.7366766780e+02 +3.7635603377e+01 -2.1277342923e+02 3.4183245847e+02 2.0000000000e+02 0.0000e+00 -1.0000e+00
      556  1    1    2    0    0 -1.7366766780e+02 -3.7635603377e+01 +4.4062371417e+01 2.7114274848e+02 2.0000000000e+02 0.0000e+00 1.0000e+00
<mgrwt>
<rscale>  0 0.58930059E+03</rscale>
<asrwt>0</asrwt>
<pdfrwt beam="2">  1        2 0.60129712E-01 0.58930059E+03</pdfrwt>
<pdfrwt beam="1">  1       -2 0.34174166E-01 0.58930059E+03</pdfrwt>
<totfact> 0.65852615E+02</totfact>
</mgrwt>
</event>
<event>
 4      1 +1.5204000e-02 6.88423400e+02 7.81860800e-03 9.73723700e-02
        1 -1    0    0  501    0 +0.0000000000e+00 +0.0000000000e+00 +1.1997671389e+03 1.1997671389e+03 0.0000000000e+00 0.0000e+00 -1.0000e+00
       -1 -1    0    0    0  501 -0.0000000000e+00 -0.0000000000e+00 -9.8753909654e+01 9.8753909654e+01 0.0000000000e+00 0.0000e+00 1.0000e+00
     -556  1    1    2    0    0 -1.0953473308e+02 -1.7088991475e+02 +1.8631152514e+02 3.4046028420e+02 2.0000000000e+02 0.0000e+00 -1.0000e+00
      556  1    1    2    0    0 +1.0953473308e+02 +1.7088991475e+02 +9.1470170409e+02 9.5806076435e+02 2.0000000000e+02 0.0000e+00 1.0000e+00
<mgrwt>
<rscale>  0 0.68842340E+03</rscale>
<asrwt>0</asrwt>
<pdfrwt beam="1">  1        1 0.18457955E+00 0.68842340E+03</pdfrwt>
<pdfrwt beam="2">  1       -1 0.15192910E-01 0.68842340E+03</pdfrwt>
<totfact> 0.34989072E+02</totfact>
</mgrwt>
</event>
<event>
 4      1 +1.5204000e-02 6.65879900e+02 7.81860800e-03 9.77743000e-02
        2 -1    0    0  501    0 +0.0000000000e+00 +0.0000000000e+00 +5.0670251877e+02 5.0670251877e+02 0.0000000000e+00 0.0000e+00 -1.0000e+00
       -2 -1    0    0    0  501 -0.0000000000e+00 -0.0000000000e+00 -2.1876543155e+02 2.1876543155e+02 0.0000000000e+00 0.0000e+00 1.0000e+00
     -556  1    1    2    0    0 -1.9470736212e+01 -2.6418697145e+02 +1.1566010137e+02 3.5149839901e+02 2.0000000000e+02 0.0000e+00 -1.0000e+00
      556  1    1    2    0    0 +1.9470736212e+01 +2.6418697145e+02 +1.7227698586e+02 3.7396955132e+02 2.0000000000e+02 0.0000e+00 1.0000e+00
<mgrwt>
<rscale>  0 0.66587985E+03</rscale>
<asrwt>0</asrwt>
<pdfrwt beam="1">  1        2 0.77954233E-01 0.66587985E+03</pdfrwt>
<pdfrwt beam="2">  1       -2 0.33656220E-01 0.66587985E+03</pdfrwt>
<totfact> 0.50398805E+02</totfact>
</mgrwt>
</event>
<event>
 4      1 +1.5204000e-02 6.68913400e+02 7.81860800e-03 9.77192300e-02
       -1 -1    0    0    0  501 -0.0000000000e+00 +0.0000000000e+00 +2.0979525197e+02 2.0979525197e+02 0.0000000000e+00 0.0000e+00 1.0000e+00
        1 -1    0    0  501    0 +0.0000000000e+00 -0.0000000000e+00 -5.3319261891e+02 5.3319261891e+02 0.0000000000e+00 0.0000e+00 -1.0000e+00
     -556  1    1    2    0    0 +1.7452083146e+02 +1.1057736067e+02 +2.8027703863e+01 2.8891248760e+02 2.0000000000e+02 0.0000e+00 1.0000e+00
      556  1    1    2    0    0 -1.7452083146e+02 -1.1057736067e+02 -3.5142507081e+02 4.5407538328e+02 2.0000000000e+02 0.0000e+00 -1.0000e+00
<mgrwt>
<rscale>  0 0.66891339E+03</rscale>
<asrwt>0</asrwt>
<pdfrwt beam="2">  1        1 0.82029633E-01 0.66891339E+03</pdfrwt>
<pdfrwt beam="1">  1       -1 0.32276193E-01 0.66891339E+03</pdfrwt>
<totfact> 0.36765875E+02</totfact>
</mgrwt>
</event>
<event>
 4      1 +1.5204000e-02 9.65874400e+02 7.81860800e-03 9.34678600e-02
        2 -1    0    0  501    0 +0.0000000000e+00 +0.0000000000e+00 +1.4822196722e+02 1.4822196722e+02 0.0000000000e+00 0.0000e+00 -1.0000e+00
       -2 -1    0    0    0  501 -0.0000000000e+00 -0.0000000000e+00 -1.5735072075e+03 1.5735072075e+03 0.0000000000e+00 0.0000e+00 1.0000e+00
     -556  1    1    2    0    0 +3.7976958599e+02 +5.1844205415e+01 -3.2901690417e+02 5.4329079074e+02 2.0000000000e+02 0.0000e+00 -1.0000e+00
      556  1    1    2    0    0 -3.7976958599e+02 -5.1844205415e+01 -1.0962683361e+03 1.1784383840e+03 2.0000000000e+02 0.0000e+00 1.0000e+00
<mgrwt>
<rscale>  0 0.96587439E+03</rscale>
<asrwt>0</asrwt>
<pdfrwt beam="1">  1        2 0.22803381E-01 0.96587439E+03</pdfrwt>
<pdfrwt beam="2">  1       -2 0.24207802E+00 0.96587439E+03</pdfrwt>
<totfact> 0.17667936E+01</totfact>
</mgrwt>
</event>
<event>
 4      1 +1.5204000e-02 6.23423000e+02 7.81860800e-03 9.85796800e-02
       -2 -1    0    0    0  501 -0.0000000000e+00 +0.0000000000e+00 +1.1382615891e+02 1.1382615891e+02 0.0000000000e+00 0.0000e+00 1.0000e+00
        2 -1    0    0  501    0 +0.0000000000e+00 -0.0000000000e+00 -8.5361801492e+02 8.5361801492e+02 0.0000000000e+00 0.0000e+00 -1.0000e+00
     -556  1    1    2    0    0 +1.3315634597e+02 +8.2750474471e+01 -8.9767407575e+01 2.6951148577e+02 2.0000000000e+02 0.0000e+00 1.0000e+00
      556  1    1    2    0    0 -1.3315634597e+02 -8.2750474471e+01 -6.5002444844e+02 6.9793268806e+02 2.0000000000e+02 0.0000e+00 -1.0000e+00
<mgrwt>
<rscale>  0 0.62342300E+03</rscale>
<asrwt>0</asrwt>
<pdfrwt beam="2">  1        2 0.13132584E+00 0.62342300E+03</pdfrwt>
<pdfrwt beam="1">  1       -2 0.17511718E-01 0.62342300E+03</pdfrwt>
<totfact> 0.85374692E+02</totfact>
</mgrwt>
</event>
<event>
 4      1 +1.5204000e-02 9.21526300e+02 7.81860800e-03 9.39906600e-02
        2 -1    0    0  501    0 +0.0000000000e+00 +0.0000000000e+00 +1.8347105569e+03 1.8347105569e+03 0.0000000000e+00 0.0000e+00 -1.0000e+00
       -2 -1    0    0    0  501 -0.0000000000e+00 -0.0000000000e+00 -1.1571452386e+02 1.1571452386e+02 0.0000000000e+00 0.0000e+00 1.0000e+00
     -556  1    1    2    0    0 +2.8116544432e+02 -1.1423576506e+02 +1.4588826548e+03 1.5034767765e+03 2.0000000000e+02 0.0000e+00 1.0000e+00
      556  1    1    2    0    0 -2.8116544432e+02 +1.1423576506e+02 +2.6011337821e+02 4.4694830419e+02 2.0000000000e+02 0.0000e+00 -1.0000e+00
<mgrwt>
<rscale>  0 0.92152625E+03</rscale>
<asrwt>0</asrwt>
<pdfrwt beam="1">  1        2 0.28226314E+00 0.92152625E+03</pdfrwt>
<pdfrwt beam="2">  1       -2 0.17802236E-01 0.92152625E+03</pdfrwt>
<totfact> 0.21730681E+02</totfact>
</mgrwt>
</event>
<event>
 4      1 +1.5204000e-02 7.14270800e+02 7.81860800e-03 9.69313400e-02
        4 -1    0    0  501    0 +0.0000000000e+00 +0.0000000000e+00 +1.3586399047e+02 1.3586399047e+02 0.0000000000e+00 0.0000e+00 -1.0000e+00
       -4 -1    0    0    0  501 -0.0000000000e+00 -0.0000000000e+00 -9.3877484701e+02 9.3877484701e+02 0.0000000000e+00 0.0000e+00 1.0000e+00
     -556  1    1    2    0    0 +3.2982271110e+01 +2.3867460686e+02 -1.4307837394e+02 3.4427433721e+02 2.0000000000e+02 0.0000e+00 -1.0000e+00
      556  1    1    2    0    0 -3.2982271110e+01 -2.3867460686e+02 -6.5983248260e+02 7.3036450027e+02 2.0000000000e+02 0.0000e+00 1.0000e+00
<mgrwt>
<rscale>  0 0.71427081E+03</rscale>
<asrwt>0</asrwt>
<pdfrwt beam="1">  1        4 0.20902152E-01 0.71427081E+03</pdfrwt>
<pdfrwt beam="2">  1       -4 0.14442690E+00 0.71427081E+03</pdfrwt>
<totfact> 0.13980173E+01</totfact>
</mgrwt>
</event>
<event>
 4      1 +1.5204000e-02 1.65347800e+03 7.81860800e-03 8.78835100e-02
        1 -1    0    0  501    0 +0.0000000000e+00 +0.0000000000e+00 +1.5161296088e+03 1.5161296088e+03 0.0000000000e+00 0.0000e+00 -1.0000e+00
       -1 -1    0    0    0  501 -0.0000000000e+00 -0.0000000000e+00 -4.5081734356e+02 4.5081734356e+02 0.0000000000e+00 0.0000e+00 1.0000e+00
     -556  1    1    2    0    0 -4.4212120059e+02 -8.0944781349e+01 -2.5774380454e+02 5.5538732649e+02 2.0000000000e+02 0.0000e+00 1.0000e+00
      556  1    1    2    0    0 +4.4212120059e+02 +8.0944781349e+01 +1.3230560698e+03 1.4115596259e+03 2.0000000000e+02 0.0000e+00 -1.0000e+00
<mgrwt>
<rscale>  0 0.16534782E+04</rscale>
<asrwt>0</asrwt>
<pdfrwt beam="1">  1        1 0.23325071E+00 0.16534782E+04</pdfrwt>
<pdfrwt beam="2">  1       -1 0.69356515E-01 0.16534782E+04</pdfrwt>
<totfact> 0.12806195E+01</totfact>
</mgrwt>
</event>
<event>
 4      1 +1.5204000e-02 6.64255900e+02 7.81860800e-03 9.78039100e-02
        2 -1    0    0  501    0 +0.0000000000e+00 +0.0000000000e+00 +8.2213981422e+02 8.2213981422e+02 0.0000000000e+00 0.0000e+00 -1.0000e+00
       -2 -1    0    0    0  501 -0.0000000000e+00 -0.0000000000e+00 -1.3417302652e+02 1.3417302652e+02 0.0000000000e+00 0.0000e+00 1.0000e+00
     -556  1    1    2    0    0 +1.2887974929e+01 +2.3592395809e+02 +5.1724024139e+02 6.0279655044e+02 2.0000000000e+02 0.0000e+00 -1.0000e+00
      556  1    1    2    0    0 -1.2887974929e+01 -2.3592395809e+02 +1.7072654630e+02 3.5351629030e+02 2.0000000000e+02 0.0000e+00 1.0000e+00
<mgrwt>
<rscale>  0 0.66425594E+03</rscale>
<asrwt>0</asrwt>
<pdfrwt beam="1">  1        2 0.12648305E+00 0.66425594E+03</pdfrwt>
<pdfrwt beam="2">  1       -2 0.20642005E-01 0.66425594E+03</pdfrwt>
<totfact> 0.67438258E+02</totfact>
</mgrwt>
</event>
<event>
 4      1 +1.5204000e-02 6.40140300e+02 7.81860800e-03 9.82545800e-02
        2 -1    0    0  501    0 +0.0000000000e+00 +0.0000000000e+00 +1.4233271214e+03 1.4233271214e+03 0.0000000000e+00 0.0000e+00 -1.0000e+00
       -2 -1    0    0    0  501 -0.0000000000e+00 -0.0000000000e+00 -7.1975644402e+01 7.1975644402e+01 0.0000000000e+00 0.0000e+00 1.0000e+00
     -556  1    1    2    0    0 -3.0842403615e+01 -1.1513038801e+02 +1.1887160199e+03 1.2113017940e+03 2.0000000000e+02 0.0000e+00 -1.0000e+00
      556  1    1    2    0    0 +3.0842403615e+01 +1.1513038801e+02 +1.6263545713e+02 2.8400097187e+02 2.0000000000e+02 0.0000e+00 1.0000e+00
<mgrwt>
<rscale>  0 0.64014026E+03</rscale>
<asrwt>0</asrwt>
<pdfrwt beam="1">  1        2 0.21897338E+00 0.64014026E+03</pdfrwt>
<pdfrwt beam="2">  1       -2 0.11073177E-01 0.64014026E+03</pdfrwt>
<totfact> 0.82811753E+02</totfact>
</mgrwt>
</event>
<event>
 4      1 +1.5204000e-02 6.05418000e+02 7.81860800e-03 9.89422900e-02
       -2 -1    0    0    0  501 -0.0000000000e+00 +0.0000000000e+00 +8.2525858902e+01 8.2525858902e+01 0.0000000000e+00 0.0000e+00 1.0000e+00
        2 -1    0    0  501    0 +0.0000000000e+00 -0.0000000000e+00 -1.1103519839e+03 1.1103519839e+03 0.0000000000e+00 0.0000e+00 -1.0000e+00
     -556  1    1    2    0    0 -9.5417760853e+01 +4.9408126768e+01 -1.1941706350e+02 2.5652708850e+02 2.0000000000e+02 0.0000e+00 1.0000e+00
      556  1    1    2    0    0 +9.5417760853e+01 -4.9408126768e+01 -9.0840906146e+02 9.3635075427e+02 2.0000000000e+02 0.0000e+00 -1.0000e+00
<mgrwt>
<rscale>  0 0.60541804E+03</rscale>
<asrwt>0</asrwt>
<pdfrwt beam="2">  1        2 0.17082337E+00 0.60541804E+03</pdfrwt>
<pdfrwt beam="1">  1       -2 0.12696287E-01 0.60541804E+03</pdfrwt>
<totfact> 0.10048822E+03</totfact>
</mgrwt>
</event>
<event>
 4      1 +1.5204000e-02 7.82954200e+02 7.81860800e-03 9.58502300e-02
       -2 -1    0    0    0  501 -0.0000000000e+00 +0.0000000000e+00 +1.0460961505e+02 1.0460961505e+02 0.0000000000e+00 0.0000e+00 -1.0000e+00
        2 -1    0    0  501    0 +0.0000000000e+00 -0.0000000000e+00 -1.4650118992e+03 1.4650118992e+03 0.0000000000e+00 0.0000e+00 1.0000e+00
     -556  1    1    2    0    0 -1.6453745145e+01 -3.3028008651e+02 -8.0537590637e+02 8.9330062792e+02 2.0000000000e+02 0.0000e+00 1.0000e+00
      556  1    1    2    0    0 +1.6453745145e+01 +3.3028008651e+02 -5.5502637781e+02 6.7632088637e+02 2.0000000000e+02 0.0000e+00 -1.0000e+00
<mgrwt>
<rscale>  0 0.78295423E+03</rscale>
<asrwt>0</asrwt>
<pdfrwt beam="2">  1        2 0.22538642E+00 0.78295423E+03</pdfrwt>
<pdfrwt beam="1">  1       -2 0.16093789E-01 0.78295423E+03</pdfrwt>
<totfact> 0.41716479E+02</totfact>
</mgrwt>
</event>
<event>
 4      1 +1.5204000e-02 6.75734800e+02 7.81860800e-03 9.75965300e-02
       -1 -1    0    0    0  501 -0.0000000000e+00 +0.0000000000e+00 +9.5263744906e+01 9.5263744906e+01 0.0000000000e+00 0.0000e+00 1.0000e+00
        1 -1    0    0  501    0 +0.0000000000e+00 -0.0000000000e+00 -1.1982983526e+03 1.1982983526e+03 0.0000000000e+00 0.0000e+00 -1.0000e+00
     -556  1    1    2    0    0 +1.9511167739e+02 -6.3742906295e+01 -8.9407971607e+02 9.3888778001e+02 2.0000000000e+02 0.0000e+00 -1.0000e+00
      556  1    1    2    0    0 -1.9511167739e+02 +6.3742906295e+01 -2.0895489161e+02 3.5467431749e+02 2.0000000000e+02 0.0000e+00 1.0000e+00
<mgrwt>
<rscale>  0 0.67573483E+03</rscale>
<asrwt>0</asrwt>
<pdfrwt beam="2">  1        1 0.18435360E+00 0.67573483E+03</pdfrwt>
<pdfrwt beam="1">  1       -1 0.14655960E-01 0.67573483E+03</pdfrwt>
<totfact> 0.37211738E+02</totfact>
</mgrwt>
</event>
<event>
 4      1 +1.5204000e-02 1.70989500e+03 7.81860800e-03 8.75574100e-02
       -2 -1    0    0    0  501 -0.0000000000e+00 +0.0000000000e+00 +3.5520629009e+02 3.5520629009e+02 0.0000000000e+00 0.0000e+00 1.0000e+00
        2 -1    0    0  501    0 +0.0000000000e+00 -0.0000000000e+00 -2.0577774656e+03 2.0577774656e+03 0.0000000000e+00 0.0000e+00 -1.0000e+00
     -556  1    1    2    0    0 +2.0342851331e+01 -3.2484881466e+02 +2.2806099490e+02 4.4491842104e+02 2.0000000000e+02 0.0000e+00 1.0000e+00
      556  1    1    2    0    0 -2.0342851331e+01 +3.2484881466e+02 -1.9306321704e+03 1.9680653346e+03 2.0000000000e+02 0.0000e+00 -1.0000e+00
<mgrwt>
<rscale>  0 0.17098953E+04</rscale>
<asrwt>0</asrwt>
<pdfrwt beam="2">  1        2 0.31658115E+00 0.17098953E+04</pdfrwt>
<pdfrwt beam="1">  1       -2 0.54647121E-01 0.17098953E+04</pdfrwt>
<totfact> 0.18589402E+01</totfact>
</mgrwt>
</event>
<event>
 4      1 +1.5204000e-02 7.03760400e+02 7.81860800e-03 9.71082300e-02
       -2 -1    0    0    0  501 -0.0000000000e+00 +0.0000000000e+00 +3.1700995946e+01 3.1700995946e+01 0.0000000000e+00 0.0000e+00 -1.0000e+00
        2 -1    0    0  501    0 +0.0000000000e+00 -0.0000000000e+00 -3.9058611902e+03 3.9058611902e+03 0.0000000000e+00 0.0000e+00 1.0000e+00
     -556  1    1    2    0    0 +2.6109421027e+02 -1.2263470494e+02 -2.0752934989e+03 2.1047690049e+03 2.0000000000e+02 0.0000e+00 1.0000e+00
      556  1    1    2    0    0 -2.6109421027e+02 +1.2263470494e+02 -1.7988666954e+03 1.8327931813e+03 2.0000000000e+02 0.0000e+00 -1.0000e+00
<mgrwt>
<rscale>  0 0.70376044E+03</rscale>
<asrwt>0</asrwt>
<pdfrwt beam="2">  1        2 0.60090128E+00 0.70376044E+03</pdfrwt>
<pdfrwt beam="1">  1       -2 0.48770799E-02 0.70376044E+03</pdfrwt>
<totfact> 0.96410459E+01</totfact>
</mgrwt>
</event>
<event>
 4      1 +1.5204000e-02 1.08363400e+03 7.81860800e-03 9.22129100e-02
       -1 -1    0    0    0  501 -0.0000000000e+00 +0.0000000000e+00 +4.6031662458e+02 4.6031662458e+02 0.0000000000e+00 0.0000e+00 1.0000e+00
        1 -1    0    0  501    0 +0.0000000000e+00 -0.0000000000e+00 -6.3774752426e+02 6.3774752426e+02 0.0000000000e+00 0.0000e+00 -1.0000e+00
     -556  1    1    2    0    0 +1.0191122737e+02 -1.3898202098e+02 -5.6815848759e+02 6.2650296683e+02 2.0000000000e+02 0.0000e+00 -1.0000e+00
      556  1    1    2    0    0 -1.0191122737e+02 +1.3898202098e+02 +3.9072758792e+02 4.7156118201e+02 2.0000000000e+02 0.0000e+00 1.0000e+00
<mgrwt>
<rscale>  0 0.10836342E+04</rscale>
<asrwt>0</asrwt>
<pdfrwt beam="2">  1        1 0.98115003E-01 0.10836342E+04</pdfrwt>
<pdfrwt beam="1">  1       -1 0.70817942E-01 0.10836342E+04</pdfrwt>
<totfact> 0.62975887E+01</totfact>
</mgrwt>
</event>
<event>
 4      1 +1.5204000e-02 5.65478700e+02 7.81860800e-03 9.97973400e-02
       -1 -1    0    0    0  501 -0.0000000000e+00 +0.0000000000e+00 +3.6897091325e+01 3.6897091325e+01 0.0000000000e+00 0.0000e+00 1.0000e+00
        1 -1    0    0  501    0 +0.0000000000e+00 -0.0000000000e+00 -2.1666079196e+03 2.1666079196e+03 0.0000000000e+00 0.0000e+00 -1.0000e+00
     -556  1    1    2    0    0 +1.5864896879e+02 -9.8612320925e+01 -7.8800688165e+02 8.3417547954e+02 2.0000000000e+02 0.0000e+00 1.0000e+00
      556  1    1    2    0    0 -1.5864896879e+02 +9.8612320925e+01 -1.3417039467e+03 1.3693295314e+03 2.0000000000e+02 0.0000e+00 -1.0000e+00
<mgrwt>
<rscale>  0 0.56547867E+03</rscale>
<asrwt>0</asrwt>
<pdfrwt beam="2">  1        1 0.33332438E+00 0.56547867E+03</pdfrwt>
<pdfrwt beam="1">  1       -1 0.56764741E-02 0.56547867E+03</pdfrwt>
<totfact> 0.36806138E+02</totfact>
</mgrwt>
</event>
<event>
 4      1 +1.5204000e-02 5.54885400e+02 7.81860800e-03 1.00036900e-01
        1 -1    0    0  501    0 +0.0000000000e+00 +0.0000000000e+00 +4.3910585885e+02 4.3910585885e+02 0.0000000000e+00 0.0000e+00 -1.0000e+00
       -1 -1    0    0    0  501 -0.0000000000e+00 -0.0000000000e+00 -1.7529816311e+02 1.7529816311e+02 0.0000000000e+00 0.0000e+00 1.0000e+00
     -556  1    1    2    0    0 -6.6789716932e+01 -1.7948767821e+02 +1.5101039223e+02 3.1540582030e+02 2.0000000000e+02 0.0000e+00 1.0000e+00
      556  1    1    2    0    0 +6.6789716932e+01 +1.7948767821e+02 +1.1279730351e+02 2.9899820166e+02 2.0000000000e+02 0.0000e+00 -1.0000e+00
<mgrwt>
<rscale>  0 0.55488540E+03</rscale>
<asrwt>0</asrwt>
<pdfrwt beam="1">  1        1 0.67554747E-01 0.55488540E+03</pdfrwt>
<pdfrwt beam="2">  1       -1 0.26968948E-01 0.55488540E+03</pdfrwt>
<totfact> 0.65582157E+02</totfact>
</mgrwt>
</event>
<event>
 4      1 +1.5204000e-02 7.92039300e+02 7.81860800e-03 9.57161200e-02
        2 -1    0    0  501    0 +0.0000000000e+00 +0.0000000000e+00 +4.2753173166e+02 4.2753173166e+02 0.0000000000e+00 0.0000e+00 -1.0000e+00
       -2 -1    0    0    0  501 -0.0000000000e+00 -0.0000000000e+00 -3.6683024967e+02 3.6683024967e+02 0.0000000000e+00 0.0000e+00 1.0000e+00
     -556  1    1    2    0    0 +2.7094651290e+02 -2.6785767747e+00 -1.7861665276e+02 3.8121266541e+02 2.0000000000e+02 0.0000e+00 1.0000e+00
      556  1    1    2    0    0 -2.7094651290e+02 +2.6785767747e+00 +2.3931813475e+02 4.1314931592e+02 2.0000000000e+02 0.0000e+00 -1.0000e+00
<mgrwt>
<rscale>  0 0.79203932E+03</rscale>
<asrwt>0</asrwt>
<pdfrwt beam="1">  1        2 0.65774113E-01 0.79203932E+03</pdfrwt>
<pdfrwt beam="2">  1       -2 0.56435423E-01 0.79203932E+03</pdfrwt>
<totfact> 0.21892583E+02</totfact>
</mgrwt>
</event>
<event>
 4      1 +1.5204000e-02 4.91234900e+02 7.81860800e-03 1.01609200e-01
       -1 -1    0    0    0  501 -0.0000000000e+00 +0.0000000000e+00 +4.1928134338e+02 4.1928134338e+02 0.0000000000e+00 0.0000e+00 1.0000e+00
        1 -1    0    0  501    0 +0.0000000000e+00 -0.0000000000e+00 -1.4388412644e+02 1.4388412644e+02 0.0000000000e+00 0.0000e+00 -1.0000e+00
     -556  1    1    2    0    0 -5.3812511574e+01 -6.5577120392e+01 +2.6907238618e+02 3.4582668221e+02 2.0000000000e+02 0.0000e+00 1.0000e+00
      556  1    1    2    0    0 +5.3812511574e+01 +6.5577120392e+01 +6.3248307592e+00 2.1733878762e+02 2.0000000000e+02 0.0000e+00 -1.0000e+00
<mgrwt>
<rscale>  0 0.49123489E+03</rscale>
<asrwt>0</asrwt>
<pdfrwt beam="2">  1        1 0.22136020E-01 0.49123489E+03</pdfrwt>
<pdfrwt beam="1">  1       -1 0.64504822E-01 0.49123489E+03</pdfrwt>
<totfact> 0.56477147E+02</totfact>
</mgrwt>
</event>
<event>
 4      1 +1.5204000e-02 1.09988900e+03 7.81860800e-03 9.20530000e-02
       -2 -1    0    0    0  501 -0.0000000000e+00 +0.0000000000e+00 +1.2044575083e+02 1.2044575083e+02 0.0000000000e+00 0.0000e+00 1.0000e+00
        2 -1    0    0  501    0 +0.0000000000e+00 -0.0000000000e+00 -2.5109995609e+03 2.5109995609e+03 0.0000000000e+00 0.0000e+00 -1.0000e+00
     -556  1    1    2    0    0 +4.1631899289e+02 +1.5175748896e+02 -1.8103186407e+03 1.8744613680e+03 2.0000000000e+02 0.0000e+00 -1.0000e+00
      556  1    1    2    0    0 -4.1631899289e+02 -1.5175748896e+02 -5.8023516944e+02 7.5698394379e+02 2.0000000000e+02 0.0000e+00 1.0000e+00
<mgrwt>
<rscale>  0 0.10998895E+04</rscale>
<asrwt>0</asrwt>
<pdfrwt beam="2">  1        2 0.38630761E+00 0.10998895E+04</pdfrwt>
<pdfrwt beam="1">  1       -2 0.18530116E-01 0.10998895E+04</pdfrwt>
<totfact> 0.83954997E+01</totfact>
</mgrwt>
</event>
<event>
 4      1 +1.5204000e-02 1.03700700e+03 7.81860800e-03 9.26886200e-02
        1 -1    0    0  501    0 +0.0000000000e+00 +0.0000000000e+00 +1.4561768488e+03 1.4561768488e+03 0.0000000000e+00 0.0000e+00 -1.0000e+00
       -1 -1    0    0    0  501 -0.0000000000e+00 -0.0000000000e+00 -1.8462440360e+02 1.8462440360e+02 0.0000000000e+00 0.0000e+00 1.0000e+00
     -556  1    1    2    0    0 +4.3692001461e+02 -1.1330386951e+02 +3.8505658383e+02 6.2610337706e+02 2.0000000000e+02 0.0000e+00 1.0000e+00
      556  1    1    2    0    0 -4.3692001461e+02 +1.1330386951e+02 +8.8649586139e+02 1.0146978754e+03 2.0000000000e+02 0.0000e+00 -1.0000e+00
<mgrwt>
<rscale>  0 0.10370068E+04</rscale>
<asrwt>0</asrwt>
<pdfrwt beam="1">  1        1 0.22402720E+00 0.10370068E+04</pdfrwt>
<pdfrwt beam="2">  1       -1 0.28403755E-01 0.10370068E+04</pdfrwt>
<totfact> 0.78808476E+01</totfact>
</mgrwt>
</event>
<event>
 4      1 +1.5204000e-02 5.50052800e+02 7.81860800e-03 1.00148200e-01
        2 -1    0    0  501    0 +0.0000000000e+00 +0.0000000000e+00 +1.4008332553e+03 1.4008332553e+03 0.0000000000e+00 0.0000e+00 -1.0000e+00
       -2 -1    0    0    0  501 -0.0000000000e+00 -0.0000000000e+00 -5.3996085761e+01 5.3996085761e+01 0.0000000000e+00 0.0000e+00 1.0000e+00
     -556  1    1    2    0    0 -1.7409094059e+02 -4.2342043616e+01 +8.3076196926e+02 8.7307843509e+02 2.0000000000e+02 0.0000e+00 1.0000e+00
      556  1    1    2    0    0 +1.7409094059e+02 +4.2342043616e+01 +5.1607520031e+02 5.8175090599e+02 2.0000000000e+02 0.0000e+00 -1.0000e+00
<mgrwt>
<rscale>  0 0.55005277E+03</rscale>
<asrwt>0</asrwt>
<pdfrwt beam="1">  1        2 0.21551278E+00 0.55005277E+03</pdfrwt>
<pdfrwt beam="2">  1       -2 0.83070912E-02 0.55005277E+03</pdfrwt>
<totfact> 0.13615561E+03</totfact>
</mgrwt>
</event>
<event>
 4      1 +1.5204000e-02 4.67594100e+02 7.81860800e-03 1.02260100e-01
       -1 -1    0    0    0  501 -0.0000000000e+00 +0.0000000000e+00 +5.1636260891e+01 5.1636260891e+01 0.0000000000e+00 0.0000e+00 1.0000e+00
        1 -1    0    0  501    0 +0.0000000000e+00 -0.0000000000e+00 -1.0585790640e+03 1.0585790640e+03 0.0000000000e+00 0.0000e+00 -1.0000e+00
     -556  1    1    2    0    0 +3.2041053783e+01 -8.6968882093e+01 -3.1847516254e+02 3.8731982229e+02 2.0000000000e+02 0.0000e+00 1.0000e+00
      556  1    1    2    0    0 -3.2041053783e+01 +8.6968882093e+01 -6.8846764060e+02 7.2289550264e+02 2.0000000000e+02 0.0000e+00 -1.0000e+00
<mgrwt>
<rscale>  0 0.46759412E+03</rscale>
<asrwt>0</asrwt>
<pdfrwt beam="2">  1        1 0.16285831E+00 0.46759412E+03</pdfrwt>
<pdfrwt beam="1">  1       -1 0.79440403E-02 0.46759412E+03</pdfrwt>
<totfact> 0.12542504E+03</totfact>
</mgrwt>
</event>
<event>
 4      1 +1.5204000e-02 7.04283000e+02 7.81860800e-03 9.70993600e-02
        2 -1    0    0  501    0 +0.0000000000e+00 +0.0000000000e+00 +7.7834879953e+02 7.7834879953e+02 0.0000000000e+00 0.0000e+00 -1.0000e+00
       -2 -1    0    0    0  501 -0.0000000000e+00 -0.0000000000e+00 -1.5931630283e+02 1.5931630283e+02 0.0000000000e+00 0.0000e+00 1.0000e+00
     -556  1    1    2    0    0 -8.4233520373e+01 +2.7701085016e+02 +3.2704576511e+02 4.8040527634e+02 2.0000000000e+02 0.0000e+00 -1.0000e+00
      556  1    1    2    0    0 +8.4233520373e+01 -2.7701085016e+02 +2.9198673159e+02 4.5725982602e+02 2.0000000000e+02 0.0000e+00 1.0000e+00
<mgrwt>
<rscale>  0 0.70428305E+03</rscale>
<asrwt>0</asrwt>
<pdfrwt beam="1">  1        2 0.11974597E+00 0.70428305E+03</pdfrwt>
<pdfrwt beam="2">  1       -2 0.24510201E-01 0.70428305E+03</pdfrwt>
<totfact> 0.53380623E+02</totfact>
</mgrwt>
</event>
<event>
 4      1 +1.5204000e-02 5.67099800e+02 7.81860800e-03 9.97611700e-02
        2 -1    0    0  501    0 +0.0000000000e+00 +0.0000000000e+00 +1.5336223951e+03 1.5336223951e+03 0.0000000000e+00 0.0000e+00 -1.0000e+00
       -2 -1    0    0    0  501 -0.0000000000e+00 -0.0000000000e+00 -5.2425248833e+01 5.2425248833e+01 0.0000000000e+00 0.0000e+00 1.0000e+00
     -556  1    1    2    0    0 +1.1776883071e+02 -1.5342243704e+02 +5.8760236644e+02 6.5014189429e+02 2.0000000000e+02 0.0000e+00 1.0000e+00
      556  1    1    2    0    0 -1.1776883071e+02 +1.5342243704e+02 +8.9359477985e+02 9.3590574966e+02 2.0000000000e+02 0.0000e+00 -1.0000e+00
<mgrwt>
<rscale>  0 0.56709976E+03</rscale>
<asrwt>0</asrwt>
<pdfrwt beam="1">  1        2 0.23594187E+00 0.56709976E+03</pdfrwt>
<pdfrwt beam="2">  1       -2 0.80654241E-02 0.56709976E+03</pdfrwt>
<totfact> 0.12040843E+03</totfact>
</mgrwt>
</event>
<event>
 4      1 +1.5204000e-02 7.03932100e+02 7.81860800e-03 9.71053100e-02
       -2 -1    0    0    0  501 -0.0000000000e+00 +0.0000000000e+00 +1.2132691248e+02 1.2132691248e+02 0.0000000000e+00 0.0000e+00 -1.0000e+00
        2 -1    0    0  501    0 +0.0000000000e+00 -0.0000000000e+00 -1.0210439062e+03 1.0210439062e+03 0.0000000000e+00 0.0000e+00 1.0000e+00
     -556  1    1    2    0    0 +2.3315494980e+02 -1.3740576379e+02 -2.8247326557e+02 4.3935489106e+02 2.0000000000e+02 0.0000e+00 1.0000e+00
      556  1    1    2    0    0 -2.3315494980e+02 +1.3740576379e+02 -6.1724372816e+02 7.0301592763e+02 2.0000000000e+02 0.0000e+00 -1.0000e+00
<mgrwt>
<rscale>  0 0.70393211E+03</rscale>
<asrwt>0</asrwt>
<pdfrwt beam="2">  1        2 0.15708367E+00 0.70393211E+03</pdfrwt>
<pdfrwt beam="1">  1       -2 0.18665679E-01 0.70393211E+03</pdfrwt>
<totfact> 0.59212087E+02</totfact>
</mgrwt>
</event>
<event>
 4      1 +1.5204000e-02 9.48274700e+02 7.81860800e-03 9.36716900e-02
       -1 -1    0    0    0  501 -0.0000000000e+00 +0.0000000000e+00 +1.0180217861e+03 1.0180217861e+03 0.0000000000e+00 0.0000e+00 1.0000e+00
        1 -1    0    0  501    0 +0.0000000000e+00 -0.0000000000e+00 -2.2082654422e+02 2.2082654422e+02 0.0000000000e+00 0.0000e+00 -1.0000e+00
     -556  1    1    2    0    0 +3.5565521736e+02 +2.4147738025e+02 +3.9589671274e+02 6.1768613872e+02 2.0000000000e+02 0.0000e+00 1.0000e+00
      556  1    1    2    0    0 -3.5565521736e+02 -2.4147738025e+02 +4.0129852917e+02 6.2116219164e+02 2.0000000000e+02 0.0000e+00 -1.0000e+00
<mgrwt>
<rscale>  0 0.94827471E+03</rscale>
<asrwt>0</asrwt>
<pdfrwt beam="2">  1        1 0.33973315E-01 0.94827471E+03</pdfrwt>
<pdfrwt beam="1">  1       -1 0.15661873E+00 0.94827471E+03</pdfrwt>
<totfact> 0.40794108E+01</totfact>
</mgrwt>
</event>
<event>
 4      1 +1.5204000e-02 6.90481200e+02 7.81860800e-03 9.73365100e-02
        1 -1    0    0  501    0 +0.0000000000e+00 +0.0000000000e+00 +1.4636648073e+03 1.4636648073e+03 0.0000000000e+00 0.0000e+00 -1.0000e+00
       -1 -1    0    0    0  501 -0.0000000000e+00 -0.0000000000e+00 -8.1433308024e+01 8.1433308024e+01 0.0000000000e+00 0.0000e+00 1.0000e+00
     -556  1    1    2    0    0 +2.6834852970e+02 +8.4538674464e+01 +6.7819381490e+02 7.6098920586e+02 2.0000000000e+02 0.0000e+00 1.0000e+00
      556  1    1    2    0    0 -2.6834852970e+02 -8.4538674464e+01 +7.0403768438e+02 7.8410890947e+02 2.0000000000e+02 0.0000e+00 -1.0000e+00
<mgrwt>
<rscale>  0 0.69048119E+03</rscale>
<asrwt>0</asrwt>
<pdfrwt beam="1">  1        1 0.22517918E+00 0.69048119E+03</pdfrwt>
<pdfrwt beam="2">  1       -1 0.12528202E-01 0.69048119E+03</pdfrwt>
<totfact> 0.31175881E+02</totfact>
</mgrwt>
</event>
<event>
 4      1 +1.5204000e-02 8.13032600e+02 7.81860800e-03 9.54134200e-02
        2 -1    0    0  501    0 +0.0000000000e+00 +0.0000000000e+00 +4.3102307295e+02 4.3102307295e+02 0.0000000000e+00 0.0000e+00 1.0000e+00
       -2 -1    0    0    0  501 -0.0000000000e+00 -0.0000000000e+00 -3.8340294722e+02 3.8340294722e+02 0.0000000000e+00 0.0000e+00 -1.0000e+00
     -556  1    1    2    0    0 +3.3084781979e+01 -3.3508012222e+02 +1.3300249887e+02 4.1359757713e+02 2.0000000000e+02 0.0000e+00 1.0000e+00
      556  1    1    2    0    0 -3.3084781979e+01 +3.3508012222e+02 -8.5382373142e+01 4.0082844304e+02 2.0000000000e+02 0.0000e+00 -1.0000e+00
<mgrwt>
<rscale>  0 0.81303264E+03</rscale>
<asrwt>0</asrwt>
<pdfrwt beam="1">  1        2 0.66311242E-01 0.81303264E+03</pdfrwt>
<pdfrwt beam="2">  1       -2 0.58985069E-01 0.81303264E+03</pdfrwt>
<totfact> 0.19757211E+02</totfact>
</mgrwt>
</event>
<event>
 4      1 +1.5204000e-02 5.14312700e+02 7.81860800e-03 1.01010900e-01
       -2 -1    0    0    0  501 -0.0000000000e+00 +0.0000000000e+00 +4.6540069909e+02 4.6540069909e+02 0.0000000000e+00 0.0000e+00 1.0000e+00
        2 -1    0    0  501    0 +0.0000000000e+00 -0.0000000000e+00 -1.4209128097e+02 1.4209128097e+02 0.0000000000e+00 0.0000e+00 -1.0000e+00
     -556  1    1    2    0    0 +6.3263758600e+01 -9.0457775190e+01 +2.2173945136e+01 2.2951382548e+02 2.0000000000e+02 0.0000e+00 -1.0000e+00
      556  1    1    2    0    0 -6.3263758600e+01 +9.0457775190e+01 +3.0113547298e+02 3.7797815457e+02 2.0000000000e+02 0.0000e+00 1.0000e+00
<mgrwt>
<rscale>  0 0.51431267E+03</rscale>
<asrwt>0</asrwt>
<pdfrwt beam="2">  1        2 0.21860197E-01 0.51431267E+03</pdfrwt>
<pdfrwt beam="1">  1       -2 0.71600107E-01 0.51431267E+03</pdfrwt>
<totfact> 0.45708425E+02</totfact>
</mgrwt>
</event>
<event>
 4      1 +1.5204000e-02 5.93942000e+02 7.81860800e-03 9.91805500e-02
        4 -1    0    0  501    0 +0.0000000000e+00 +0.0000000000e+00 +5.8173055913e+02 5.8173055913e+02 0.0000000000e+00 0.0000e+00 -1.0000e+00
       -4 -1    0    0    0  501 -0.0000000000e+00 -0.0000000000e+00 -1.5160245450e+02 1.5160245450e+02 0.0000000000e+00 0.0000e+00 1.0000e+00
     -556  1    1    2    0    0 -2.5000745314e+01 +1.3610056208e+02 +4.6470802647e+00 2.4324883478e+02 2.0000000000e+02 0.0000e+00 1.0000e+00
      556  1    1    2    0    0 +2.5000745314e+01 -1.3610056208e+02 +4.2548102437e+02 4.9008417886e+02 2.0000000000e+02 0.0000e+00 -1.0000e+00
<mgrwt>
<rscale>  0 0.59394202E+03</rscale>
<asrwt>0</asrwt>
<pdfrwt beam="1">  1        4 0.89497008E-01 0.59394202E+03</pdfrwt>
<pdfrwt beam="2">  1       -4 0.23323455E-01 0.59394202E+03</pdfrwt>
<totfact> 0.36727545E+01</totfact>
</mgrwt>
</event>
<event>
 4      1 +1.5204000e-02 7.73865300e+02 7.81860800e-03 9.59863600e-02
       -4 -1    0    0    0  501 -0.0000000000e+00 +0.0000000000e+00 +7.3522858746e+01 7.3522858746e+01 0.0000000000e+00 0.0000e+00 1.0000e+00
        4 -1    0    0  501    0 +0.0000000000e+00 -0.0000000000e+00 -2.0363310144e+03 2.0363310144e+03 0.0000000000e+00 0.0000e+00 -1.0000e+00
     -556  1    1    2    0    0 +2.6169411069e+01 -2.6820064945e+02 -1.5065458873e+03 1.5434691241e+03 2.0000000000e+02 0.0000e+00 -1.0000e+00
      556  1    1    2    0    0 -2.6169411069e+01 +2.6820064945e+02 -4.5626226830e+02 5.6638474901e+02 2.0000000000e+02 0.0000e+00 1.0000e+00
<mgrwt>
<rscale>  0 0.77386530E+03</rscale>
<asrwt>0</asrwt>
<pdfrwt beam="2">  1        4 0.31328170E+00 0.77386530E+03</pdfrwt>
<pdfrwt beam="1">  1       -4 0.11311209E-01 0.77386530E+03</pdfrwt>
<totfact> 0.33723521E+00</totfact>
</mgrwt>
</event>
<event>
 4      1 +1.5204000e-02 5.29989700e+02 7.81860800e-03 1.00623500e-01
       -2 -1    0    0    0  501 -0.0000000000e+00 +0.0000000000e+00 +4.0641480187e+02 4.0641480187e+02 0.0000000000e+00 0.0000e+00 1.0000e+00
        2 -1    0    0  501    0 +0.0000000000e+00 -0.0000000000e+00 -1.7278469485e+02 1.7278469485e+02 0.0000000000e+00 0.0000e+00 -1.0000e+00
     -556  1    1    2    0    0 -1.1816624970e+02 +2.9333988355e+01 -1.8797584958e+01 2.3489805159e+02 2.0000000000e+02 0.0000e+00 -1.0000e+00
      556  1    1    2    0    0 +1.1816624970e+02 -2.9333988355e+01 +2.5242769197e+02 3.4430144513e+02 2.0000000000e+02 0.0000e+00 1.0000e+00
<mgrwt>
<rscale>  0 0.52998965E+03</rscale>
<asrwt>0</asrwt>
<pdfrwt beam="2">  1        2 0.26582261E-01 0.52998965E+03</pdfrwt>
<pdfrwt beam="1">  1       -2 0.62525354E-01 0.52998965E+03</pdfrwt>
<totfact> 0.48877052E+02</totfact>
</mgrwt>
</event>
<event>
 4      1 +1.5204000e-02 1.31891800e+03 7.81860800e-03 9.01469600e-02
       -2 -1    0    0    0  501 -0.0000000000e+00 +0.0000000000e+00 +1.3454953406e+02 1.3454953406e+02 0.0000000000e+00 0.0000e+00 -1.0000e+00
        2 -1    0    0  501    0 +0.0000000000e+00 -0.0000000000e+00 -3.2321641339e+03 3.2321641339e+03 0.0000000000e+00 0.0000e+00 1.0000e+00
     -556  1    1    2    0    0 -5.0544516053e+02 +3.6047889477e+02 -1.7971659574e+03 1.9118643577e+03 2.0000000000e+02 0.0000e+00 1.0000e+00
      556  1    1    2    0    0 +5.0544516053e+02 -3.6047889477e+02 -1.3004486424e+03 1.4548493102e+03 2.0000000000e+02 0.0000e+00 -1.0000e+00
<mgrwt>
<rscale>  0 0.13189180E+04</rscale>
<asrwt>0</asrwt>
<pdfrwt beam="2">  1        2 0.49725605E+00 0.13189180E+04</pdfrwt>
<pdfrwt beam="1">  1       -2 0.20699927E-01 0.13189180E+04</pdfrwt>
<totfact> 0.24690932E+01</totfact>
</mgrwt>
</event>
<event>
 4      1 +1.5204000e-02 7.86962100e+02 7.81860800e-03 9.57908300e-02
        2 -1    0    0  501    0 +0.0000000000e+00 +0.0000000000e+00 +3.1371677821e+02 3.1371677821e+02 0.0000000000e+00 0.0000e+00 -1.0000e+00
       -2 -1    0    0    0  501 -0.0000000000e+00 -0.0000000000e+00 -4.9352583949e+02 4.9352583949e+02 0.0000000000e+00 0.0000e+00 1.0000e+00
     -556  1    1    2    0    0 +1.4359120556e+02 +2.4872808409e+02 -2.7438145177e+02 4.4471257595e+02 2.0000000000e+02 0.0000e+00 1.0000e+00
      556  1    1    2    0    0 -1.4359120556e+02 -2.4872808409e+02 +9.4572390490e+01 3.6253004176e+02 2.0000000000e+02 0.0000e+00 -1.0000e+00
<mgrwt>
<rscale>  0 0.78696210E+03</rscale>
<asrwt>0</asrwt>
<pdfrwt beam="1">  1        2 0.48264120E-01 0.78696210E+03</pdfrwt>
<pdfrwt beam="2">  1       -2 0.75927052E-01 0.78696210E+03</pdfrwt>
<totfact> 0.16359368E+02</totfact>
</mgrwt>
</event>
<event>
 4      1 +1.5204000e-02 8.14234000e+02 7.81860800e-03 9.53964000e-02
       -1 -1    0    0    0  501 -0.0000000000e+00 +0.0000000000e+00 +1.7708088523e+02 1.7708088523e+02 0.0000000000e+00 0.0000e+00 1.0000e+00
        1 -1    0    0  501    0 +0.0000000000e+00 -0.0000000000e+00 -9.3598043499e+02 9.3598043499e+02 0.0000000000e+00 0.0000e+00 -1.0000e+00
     -556  1    1    2    0    0 -2.5636808177e+02 +7.4508122553e+01 -6.0412563321e+01 3.3900697852e+02 2.0000000000e+02 0.0000e+00 1.0000e+00
      556  1    1    2    0    0 +2.5636808177e+02 -7.4508122553e+01 -6.9848698644e+02 7.7405434170e+02 2.0000000000e+02 0.0000e+00 -1.0000e+00
<mgrwt>
<rscale>  0 0.81423398E+03</rscale>
<asrwt>0</asrwt>
<pdfrwt beam="2">  1        1 0.14399699E+00 0.81423398E+03</pdfrwt>
<pdfrwt beam="1">  1       -1 0.27243213E-01 0.81423398E+03</pdfrwt>
<totfact> 0.20730609E+02</totfact>
</mgrwt>
</event>
<event>
 4      1 +1.5204000e-02 5.53381800e+02 7.81860800e-03 1.00071400e-01
        2 -1    0    0  501    0 +0.0000000000e+00 +0.0000000000e+00 +1.5741251527e+02 1.5741251527e+02 0.0000000000e+00 0.0000e+00 -1.0000e+00
       -2 -1    0    0    0  501 -0.0000000000e+00 -0.0000000000e+00 -4.8635170525e+02 4.8635170525e+02 0.0000000000e+00 0.0000e+00 1.0000e+00
     -556  1    1    2    0    0 +1.6061364937e+02 -1.0263562361e+02 -1.8199803486e+02 3.3083848067e+02 2.0000000000e+02 0.0000e+00 1.0000e+00
      556  1    1    2    0    0 -1.6061364937e+02 +1.0263562361e+02 -1.4694115511e+02 3.1292573985e+02 2.0000000000e+02 0.0000e+00 -1.0000e+00
<mgrwt>
<rscale>  0 0.55338177E+03</rscale>
<asrwt>0</asrwt>
<pdfrwt beam="1">  1        2 0.24217310E-01 0.55338177E+03</pdfrwt>
<pdfrwt beam="2">  1       -2 0.74823340E-01 0.55338177E+03</pdfrwt>
<totfact> 0.36868195E+02</totfact>
</mgrwt>
</event>
<event>
 4      1 +1.5204000e-02 5.11102000e+02 7.81860800e-03 1.01092100e-01
       -2 -1    0    0    0  501 -0.0000000000e+00 +0.0000000000e+00 +6.9115729231e+02 6.9115729231e+02 0.0000000000e+00 0.0000e+00 1.0000e+00
        2 -1    0    0  501    0 +0.0000000000e+00 -0.0000000000e+00 -9.4488352021e+01 9.4488352021e+01 0.0000000000e+00 0.0000e+00 -1.0000e+00
     -556  1    1    2    0    0 -1.2367413740e+02 -9.1352552959e+01 +2.3559776066e+02 3.4517660121e+02 2.0000000000e+02 0.0000e+00 1.0000e+00
      556  1    1    2    0    0 +1.2367413740e+02 +9.1352552959e+01 +3.6107117962e+02 4.4046904312e+02 2.0000000000e+02 0.0000e+00 -1.0000e+00
<mgrwt>
<rscale>  0 0.51110200E+03</rscale>
<asrwt>0</asrwt>
<pdfrwt beam="2">  1        2 0.14536670E-01 0.51110200E+03</pdfrwt>
<pdfrwt beam="1">  1       -2 0.10633189E+00 0.51110200E+03</pdfrwt>
<totfact> 0.30080579E+02</totfact>
</mgrwt>
</event>
<event>
 4      1 +1.5204000e-02 6.37618300e+02 7.81860800e-03 9.83029400e-02
       -1 -1    0    0    0  501 -0.0000000000e+00 +0.0000000000e+00 +5.3480078012e+02 5.3480078012e+02 0.0000000000e+00 0.0000e+00 1.0000e+00
        1 -1    0    0  501    0 +0.0000000000e+00 -0.0000000000e+00 -1.9005072514e+02 1.9005072514e+02 0.0000000000e+00 0.0000e+00 -1.0000e+00
     -556  1    1    2    0    0 -1.0866763489e+02 -2.2039928755e+02 +2.1264406396e+02 3.8157829965e+02 2.0000000000e+02 0.0000e+00 1.0000e+00
      556  1    1    2    0    0 +1.0866763489e+02 +2.2039928755e+02 +1.3210599101e+02 3.4327320560e+02 2.0000000000e+02 0.0000e+00 -1.0000e+00
<mgrwt>
<rscale>  0 0.63761831E+03</rscale>
<asrwt>0</asrwt>
<pdfrwt beam="2">  1        1 0.29238573E-01 0.63761831E+03</pdfrwt>
<pdfrwt beam="1">  1       -1 0.82277043E-01 0.63761831E+03</pdfrwt>
<totfact> 0.23726771E+02</totfact>
</mgrwt>
</event>
<event>
 4      1 +1.5204000e-02 1.06053400e+03 7.81860800e-03 9.24453600e-02
        1 -1    0    0  501    0 +0.0000000000e+00 +0.0000000000e+00 +2.5905636169e+02 2.5905636169e+02 0.0000000000e+00 0.0000e+00 -1.0000e+00
       -1 -1    0    0    0  501 -0.0000000000e+00 -0.0000000000e+00 -1.0854126232e+03 1.0854126232e+03 0.0000000000e+00 0.0000e+00 1.0000e+00
     -556  1    1    2    0    0 +4.4716610051e+01 -2.8467598027e+01 +2.0577080211e+02 2.9180747481e+02 2.0000000000e+02 0.0000e+00 -1.0000e+00
      556  1    1    2    0    0 -4.4716610051e+01 +2.8467598027e+01 -1.0321270637e+03 1.0526615101e+03 2.0000000000e+02 0.0000e+00 1.0000e+00
<mgrwt>
<rscale>  0 0.10605339E+04</rscale>
<asrwt>0</asrwt>
<pdfrwt beam="1">  1        1 0.39854825E-01 0.10605339E+04</pdfrwt>
<pdfrwt beam="2">  1       -1 0.16698656E+00 0.10605339E+04</pdfrwt>
<totfact> 0.27478861E+01</totfact>
</mgrwt>
</event>
<event>
 4      1 +1.5204000e-02 6.03576100e+02 7.81860800e-03 9.89801400e-02
       -2 -1    0    0    0  501 -0.0000000000e+00 +0.0000000000e+00 +3.1051928617e+01 3.1051928617e+01 0.0000000000e+00 0.0000e+00 1.0000e+00
        2 -1    0    0  501    0 +0.0000000000e+00 -0.0000000000e+00 -2.9330235704e+03 2.9330235704e+03 0.0000000000e+00 0.0000e+00 -1.0000e+00
     -556  1    1    2    0    0 -1.7162189927e+02 +6.7577942562e+01 -2.0923215025e+03 2.1099360475e+03 2.0000000000e+02 0.0000e+00 -1.0000e+00
      556  1    1    2    0    0 +1.7162189927e+02 -6.7577942562e+01 -8.0965013925e+02 8.5413945150e+02 2.0000000000e+02 0.0000e+00 1.0000e+00
<mgrwt>
<rscale>  0 0.60357614E+03</rscale>
<asrwt>0</asrwt>
<pdfrwt beam="2">  1        2 0.45123433E+00 0.60357614E+03</pdfrwt>
<pdfrwt beam="1">  1       -2 0.47772205E-02 0.60357614E+03</pdfrwt>
<totfact> 0.45417008E+02</totfact>
</mgrwt>
</event>
<event>
 4      1 +1.5204000e-02 6.05172000e+02 7.81860800e-03 9.89473400e-02
       -1 -1    0    0    0  501 -0.0000000000e+00 +0.0000000000e+00 +8.0138880066e+01 8.0138880066e+01 0.0000000000e+00 0.0000e+00 1.0000e+00
        1 -1    0    0  501    0 +0.0000000000e+00 -0.0000000000e+00 -1.1424952305e+03 1.1424952305e+03 0.0000000000e+00 0.0000e+00 -1.0000e+00
     -556  1    1    2    0    0 +3.7895398504e+01 -8.3968560465e+01 -9.5046645041e+02 9.7563992012e+02 2.0000000000e+02 0.0000e+00 -1.0000e+00
      556  1    1    2    0    0 -3.7895398504e+01 +8.3968560465e+01 -1.1188989998e+02 2.4699419040e+02 2.0000000000e+02 0.0000e+00 1.0000e+00
<mgrwt>
<rscale>  0 0.60517200E+03</rscale>
<asrwt>0</asrwt>
<pdfrwt beam="2">  1        1 0.17576849E+00 0.60517200E+03</pdfrwt>
<pdfrwt beam="1">  1       -1 0.12329059E-01 0.60517200E+03</pdfrwt>
<totfact> 0.54165003E+02</totfact>
</mgrwt>
</event>
<event>
 4      1 +1.5204000e-02 5.40239400e+02 7.81860800e-03 1.00377900e-01
       -2 -1    0    0    0  501 -0.0000000000e+00 +0.0000000000e+00 +4.4130693671e+02 4.4130693671e+02 0.0000000000e+00 0.0000e+00 1.0000e+00
        2 -1    0    0  501    0 +0.0000000000e+00 -0.0000000000e+00 -1.6533763484e+02 1.6533763484e+02 0.0000000000e+00 0.0000e+00 -1.0000e+00
     -556  1    1    2    0    0 -6.7161235095e+01 -1.0448510325e+02 +2.8668918443e+02 3.7096961704e+02 2.0000000000e+02 0.0000e+00 1.0000e+00
      556  1    1    2    0    0 +6.7161235095e+01 +1.0448510325e+02 -1.0719882557e+01 2.3567495451e+02 2.0000000000e+02 0.0000e+00 -1.0000e+00
<mgrwt>
<rscale>  0 0.54023937E+03</rscale>
<asrwt>0</asrwt>
<pdfrwt beam="2">  1        2 0.25436559E-01 0.54023937E+03</pdfrwt>
<pdfrwt beam="1">  1       -2 0.67893374E-01 0.54023937E+03</pdfrwt>
<totfact> 0.43089403E+02</totfact>
</mgrwt>
</event>
<event>
 4      1 +1.5204000e-02 7.72870700e+02 7.81860800e-03 9.60013800e-02
       -2 -1    0    0    0  501 -0.0000000000e+00 +0.0000000000e+00 +5.0991224459e+01 5.0991224459e+01 0.0000000000e+00 0.0000e+00 1.0000e+00
        2 -1    0    0  501    0 +0.0000000000e+00 -0.0000000000e+00 -2.9285880156e+03 2.9285880156e+03 0.0000000000e+00 0.0000e+00 -1.0000e+00
     -556  1    1    2    0    0 +3.2000900176e+02 +2.7682161624e+01 -1.7413826959e+03 1.7820173279e+03 2.0000000000e+02 0.0000e+00 -1.0000e+00
      556  1    1    2    0    0 -3.2000900176e+02 -2.7682161624e+01 -1.1362140953e+03 1.1975619122e+03 2.0000000000e+02 0.0000e+00 1.0000e+00
<mgrwt>
<rscale>  0 0.77287072E+03</rscale>
<asrwt>0</asrwt>
<pdfrwt beam="2">  1        2 0.45055221E+00 0.77287072E+03</pdfrwt>
<pdfrwt beam="1">  1       -2 0.78448001E-02 0.77287072E+03</pdfrwt>
<totfact> 0.20564573E+02</totfact>
</mgrwt>
</event>
<event>
 4      1 +1.5204000e-02 1.20674200e+03 7.81860800e-03 9.10697500e-02
       -1 -1    0    0    0  501 -0.0000000000e+00 +0.0000000000e+00 +1.4051994027e+02 1.4051994027e+02 0.0000000000e+00 0.0000e+00 1.0000e+00
        1 -1    0    0  501    0 +0.0000000000e+00 -0.0000000000e+00 -2.5907835548e+03 2.5907835548e+03 0.0000000000e+00 0.0000e+00 -1.0000e+00
     -556  1    1    2    0    0 +1.8957250793e+02 +5.6461258271e+01 -2.4332943842e+03 2.4494993712e+03 2.0000000000e+02 0.0000e+00 -1.0000e+00
      556  1    1    2    0    0 -1.8957250793e+02 -5.6461258271e+01 -1.6969230356e+01 2.8180412387e+02 2.0000000000e+02 0.0000e+00 1.0000e+00
<mgrwt>
<rscale>  0 0.12067423E+04</rscale>
<asrwt>0</asrwt>
<pdfrwt beam="2">  1        1 0.39858206E+00 0.12067423E+04</pdfrwt>
<pdfrwt beam="1">  1       -1 0.21618454E-01 0.12067423E+04</pdfrwt>
<totfact> 0.20939010E+01</totfact>
</mgrwt>
</event>
<event>
 4      1 +1.5204000e-02 6.17338600e+02 7.81860800e-03 9.87007300e-02
       -2 -1    0    0    0  501 -0.0000000000e+00 +0.0000000000e+00 +5.8335907077e+01 5.8335907077e+01 0.0000000000e+00 0.0000e+00 1.0000e+00
        2 -1    0    0  501    0 +0.0000000000e+00 -0.0000000000e+00 -1.6332433196e+03 1.6332433196e+03 0.0000000000e+00 0.0000e+00 -1.0000e+00
     -556  1    1    2    0    0 +2.2714044098e+02 +5.3195663450e+01 -8.6753693725e+02 9.2034933369e+02 2.0000000000e+02 0.0000e+00 -1.0000e+00
      556  1    1    2    0    0 -2.2714044098e+02 -5.3195663450e+01 -7.0737047527e+02 7.7122989297e+02 2.0000000000e+02 0.0000e+00 1.0000e+00
<mgrwt>
<rscale>  0 0.61733858E+03</rscale>
<asrwt>0</asrwt>
<pdfrwt beam="2">  1        2 0.25126819E+00 0.61733858E+03</pdfrwt>
<pdfrwt beam="1">  1       -2 0.89747553E-02 0.61733858E+03</pdfrwt>
<totfact> 0.89286406E+02</totfact>
</mgrwt>
</event>
<event>
 4      1 +1.5204000e-02 6.93875900e+02 7.81860800e-03 9.72776300e-02
       -3 -1    0    0    0  501 -0.0000000000e+00 +0.0000000000e+00 +5.2791408445e+02 5.2791408445e+02 0.0000000000e+00 0.0000e+00 1.0000e+00
        3 -1    0    0  501    0 +0.0000000000e+00 -0.0000000000e+00 -2.2800287186e+02 2.2800287186e+02 0.0000000000e+00 0.0000e+00 -1.0000e+00
     -556  1    1    2    0    0 +9.8868499624e+01 -9.8146889041e+01 +4.1892827088e+02 4.8467379565e+02 2.0000000000e+02 0.0000e+00 1.0000e+00
      556  1    1    2    0    0 -9.8868499624e+01 +9.8146889041e+01 -1.1901705829e+02 2.7124316067e+02 2.0000000000e+02 0.0000e+00 -1.0000e+00
<mgrwt>
<rscale>  0 0.69387586E+03</rscale>
<asrwt>0</asrwt>
<pdfrwt beam="2">  1        3 0.35077365E-01 0.69387586E+03</pdfrwt>
<pdfrwt beam="1">  1       -3 0.81217551E-01 0.69387586E+03</pdfrwt>
<totfact> 0.29763759E+01</totfact>
</mgrwt>
</event>
<event>
 4      1 +1.5204000e-02 5.44695800e+02 7.81860800e-03 1.00272900e-01
        2 -1    0    0  501    0 +0.0000000000e+00 +0.0000000000e+00 +2.0333569843e+02 2.0333569843e+02 0.0000000000e+00 0.0000e+00 -1.0000e+00
       -2 -1    0    0    0  501 -0.0000000000e+00 -0.0000000000e+00 -3.6478285578e+02 3.6478285578e+02 0.0000000000e+00 0.0000e+00 1.0000e+00
     -556  1    1    2    0    0 +1.0124155631e+01 +1.3428307427e+02 +5.1367262192e+01 2.4652188176e+02 2.0000000000e+02 0.0000e+00 -1.0000e+00
      556  1    1    2    0    0 -1.0124155631e+01 -1.3428307427e+02 -2.1281441955e+02 3.2159667245e+02 2.0000000000e+02 0.0000e+00 1.0000e+00
<mgrwt>
<rscale>  0 0.54469579E+03</rscale>
<asrwt>0</asrwt>
<pdfrwt beam="1">  1        2 0.31282415E-01 0.54469579E+03</pdfrwt>
<pdfrwt beam="2">  1       -2 0.56120440E-01 0.54469579E+03</pdfrwt>
<totfact> 0.51017305E+02</totfact>
</mgrwt>
</event>
<event>
 4      1 +1.5204000e-02 5.97502200e+02 7.81860800e-03 9.91060200e-02
       -1 -1    0    0    0  501 -0.0000000000e+00 +0.0000000000e+00 +7.4058124179e+02 7.4058124179e+02 0.0000000000e+00 0.0000e+00 1.0000e+00
        1 -1    0    0  501    0 +0.0000000000e+00 -0.0000000000e+00 -1.2051645050e+02 1.2051645050e+02 0.0000000000e+00 0.0000e+00 -1.0000e+00
     -556  1    1    2    0    0 -1.4981291226e+02 +7.2886849609e+01 +9.8737050945e+01 2.7839792879e+02 2.0000000000e+02 0.0000e+00 -1.0000e+00
      556  1    1    2    0    0 +1.4981291226e+02 -7.2886849609e+01 +5.2132774034e+02 5.8269976350e+02 2.0000000000e+02 0.0000e+00 1.0000e+00
<mgrwt>
<rscale>  0 0.59750221E+03</rscale>
<asrwt>0</asrwt>
<pdfrwt beam="2">  1        1 0.18540993E-01 0.59750221E+03</pdfrwt>
<pdfrwt beam="1">  1       -1 0.11393557E+00 0.59750221E+03</pdfrwt>
<totfact> 0.20756096E+02</totfact>
</mgrwt>
</event>
<event>
 4      1 +1.5204000e-02 6.65221300e+02 7.81860800e-03 9.77862900e-02
       -2 -1    0    0    0  501 -0.0000000000e+00 +0.0000000000e+00 +8.4014835444e+01 8.4014835444e+01 0.0000000000e+00 0.0000e+00 1.0000e+00
        2 -1    0    0  501    0 +0.0000000000e+00 -0.0000000000e+00 -1.3167894044e+03 1.3167894044e+03 0.0000000000e+00 0.0000e+00 -1.0000e+00
     -556  1    1    2    0    0 -1.7503675767e+02 +5.9259651427e+01 -2.1418888742e+02 3.4644834004e+02 2.0000000000e+02 0.0000e+00 1.0000e+00
      556  1    1    2    0    0 +1.7503675767e+02 -5.9259651427e+01 -1.0185856815e+03 1.0543558998e+03 2.0000000000e+02 0.0000e+00 -1.0000e+00
<mgrwt>
<rscale>  0 0.66522130E+03</rscale>
<asrwt>0</asrwt>
<pdfrwt beam="2">  1        2 0.20258298E+00 0.66522130E+03</pdfrwt>
<pdfrwt beam="1">  1       -2 0.12925360E-01 0.66522130E+03</pdfrwt>
<totfact> 0.73632530E+02</totfact>
</mgrwt>
</event>
<event>
 4      1 +1.5204000e-02 4.94829600e+02 7.81860800e-03 1.01513700e-01
       -1 -1    0    0    0  501 -0.0000000000e+00 +0.0000000000e+00 +3.9390884508e+02 3.9390884508e+02 0.0000000000e+00 0.0000e+00 1.0000e+00
        1 -1    0    0  501    0 +0.0000000000e+00 -0.0000000000e+00 -1.5540162602e+02 1.5540162602e+02 0.0000000000e+00 0.0000e+00 -1.0000e+00
     -556  1    1    2    0    0 -1.3235968929e+02 -1.3924957326e+01 +1.8493819367e+02 3.0317507692e+02 2.0000000000e+02 0.0000e+00 1.0000e+00
      556  1    1    2    0    0 +1.3235968929e+02 +1.3924957326e+01 +5.3569025390e+01 2.4613539418e+02 2.0000000000e+02 0.0000e+00 -1.0000e+00
<mgrwt>
<rscale>  0 0.49482957E+03</rscale>
<asrwt>0</asrwt>
<pdfrwt beam="2">  1        1 0.23907943E-01 0.49482957E+03</pdfrwt>
<pdfrwt beam="1">  1       -1 0.60601361E-01 0.49482957E+03</pdfrwt>
<totfact> 0.57778582E+02</totfact>
</mgrwt>
</event>
<event>
 4      1 +1.5204000e-02 5.16012800e+02 7.81860800e-03 1.00968200e-01
        2 -1    0    0  501    0 +0.0000000000e+00 +0.0000000000e+00 +7.8874277958e+01 7.8874277958e+01 0.0000000000e+00 0.0000e+00 -1.0000e+00
       -2 -1    0    0    0  501 -0.0000000000e+00 -0.0000000000e+00 -8.4396703359e+02 8.4396703359e+02 0.0000000000e+00 0.0000e+00 1.0000e+00
     -556  1    1    2    0    0 -1.0608234051e+02 +1.9298848346e+01 -6.0115232625e+02 6.4265856244e+02 2.0000000000e+02 0.0000e+00 1.0000e+00
      556  1    1    2    0    0 +1.0608234051e+02 -1.9298848346e+01 -1.6394042938e+02 2.8018274911e+02 2.0000000000e+02 0.0000e+00 -1.0000e+00
<mgrwt>
<rscale>  0 0.51601275E+03</rscale>
<asrwt>0</asrwt>
<pdfrwt beam="1">  1        2 0.12134505E-01 0.51601275E+03</pdfrwt>
<pdfrwt beam="2">  1       -2 0.12984107E+00 0.51601275E+03</pdfrwt>
<totfact> 0.23025267E+02</totfact>
</mgrwt>
</event>
<event>
 4      1 +1.5204000e-02 4.83249800e+02 7.81860800e-03 1.01824600e-01
       -2 -1    0    0    0  501 -0.0000000000e+00 +0.0000000000e+00 +2.9919896471e+01 2.9919896471e+01 0.0000000000e+00 0.0000e+00 1.0000e+00
        2 -1    0    0  501    0 +0.0000000000e+00 -0.0000000000e+00 -1.9512964871e+03 1.9512964871e+03 0.0000000000e+00 0.0000e+00 -1.0000e+00
     -556  1    1    2    0    0 +7.7211033069e+01 -1.0746916476e+02 -8.3966332975e+02 8.7323861134e+02 2.0000000000e+02 0.0000e+00 1.0000e+00
      556  1    1    2    0    0 -7.7211033069e+01 +1.0746916476e+02 -1.0817132609e+03 1.1079777722e+03 2.0000000000e+02 0.0000e+00 -1.0000e+00
<mgrwt>
<rscale>  0 0.48324979E+03</rscale>
<asrwt>0</asrwt>
<pdfrwt beam="2">  1        2 0.30019938E+00 0.48324979E+03</pdfrwt>
<pdfrwt beam="1">  1       -2 0.46030622E-02 0.48324979E+03</pdfrwt>
<totfact> 0.17279599E+03</totfact>
</mgrwt>
</event>
<event>
 4      1 +1.5204000e-02 4.30176700e+02 7.81860800e-03 1.03380400e-01
       -1 -1    0    0    0  501 -0.0000000000e+00 +0.0000000000e+00 +9.5093429579e+02 9.5093429579e+02 0.0000000000e+00 0.0000e+00 -1.0000e+00
        1 -1    0    0  501    0 +0.0000000000e+00 -0.0000000000e+00 -4.8650036973e+01 4.8650036973e+01 0.0000000000e+00 0.0000e+00 1.0000e+00
     -556  1    1    2    0    0 +5.0752274471e+01 +4.7280026962e+01 +5.3967920050e+02 5.7971099159e+02 2.0000000000e+02 0.0000e+00 -1.0000e+00
      556  1    1    2    0    0 -5.0752274471e+01 -4.7280026962e+01 +3.6260505832e+02 4.1987334118e+02 2.0000000000e+02 0.0000e+00 1.0000e+00
<mgrwt>
<rscale>  0 0.43017666E+03</rscale>
<asrwt>0</asrwt>
<pdfrwt beam="2">  1        1 0.74846218E-02 0.43017666E+03</pdfrwt>
<pdfrwt beam="1">  1       -1 0.14629757E+00 0.43017666E+03</pdfrwt>
<totfact> 0.38335801E+02</totfact>
</mgrwt>
</event>
<event>
 4      1 +1.5204000e-02 4.99596900e+02 7.81860800e-03 1.01388400e-01
        1 -1    0    0  501    0 +0.0000000000e+00 +0.0000000000e+00 +5.2224019291e+02 5.2224019291e+02 0.0000000000e+00 0.0000e+00 -1.0000e+00
       -1 -1    0    0    0  501 -0.0000000000e+00 -0.0000000000e+00 -1.1948383667e+02 1.1948383667e+02 0.0000000000e+00 0.0000e+00 1.0000e+00
     -556  1    1    2    0    0 -2.5364158796e+01 +7.3181285339e+01 +3.6587445622e+02 4.2410253334e+02 2.0000000000e+02 0.0000e+00 -1.0000e+00
      556  1    1    2    0    0 +2.5364158796e+01 -7.3181285339e+01 +3.6881900024e+01 2.1762149624e+02 2.0000000000e+02 0.0000e+00 1.0000e+00
<mgrwt>
<rscale>  0 0.49959689E+03</rscale>
<asrwt>0</asrwt>
<pdfrwt beam="1">  1        1 0.80344644E-01 0.49959689E+03</pdfrwt>
<pdfrwt beam="2">  1       -1 0.18382129E-01 0.49959689E+03</pdfrwt>
<totfact> 0.98642726E+02</totfact>
</mgrwt>
</event>
<event>
 4      1 +1.5204000e-02 4.67170400e+02 7.81860800e-03 1.02272200e-01
       -2 -1    0    0    0  501 -0.0000000000e+00 +0.0000000000e+00 +2.1148931715e+02 2.1148931715e+02 0.0000000000e+00 0.0000e+00 1.0000e+00
        2 -1    0    0  501    0 +0.0000000000e+00 -0.0000000000e+00 -2.5798960057e+02 2.5798960057e+02 0.0000000000e+00 0.0000e+00 -1.0000e+00
     -556  1    1    2    0    0 -7.6458719074e+01 +1.3099549909e+01 +6.9643155043e+01 2.2553869507e+02 2.0000000000e+02 0.0000e+00 1.0000e+00
      556  1    1    2    0    0 +7.6458719074e+01 -1.3099549909e+01 -1.1614343845e+02 2.4394022265e+02 2.0000000000e+02 0.0000e+00 -1.0000e+00
<mgrwt>
<rscale>  0 0.46717039E+03</rscale>
<asrwt>0</asrwt>
<pdfrwt beam="2">  1        2 0.39690708E-01 0.46717039E+03</pdfrwt>
<pdfrwt beam="1">  1       -2 0.32536818E-01 0.46717039E+03</pdfrwt>
<totfact> 0.11424766E+03</totfact>
</mgrwt>
</event>
<event>
 4      1 +1.5204000e-02 4.79694300e+02 7.81860800e-03 1.01921900e-01
       -2 -1    0    0    0  501 -0.0000000000e+00 +0.0000000000e+00 +4.8069236604e+01 4.8069236604e+01 0.0000000000e+00 0.0000e+00 -1.0000e+00
        2 -1    0    0  501    0 +0.0000000000e+00 -0.0000000000e+00 -1.1967455505e+03 1.1967455505e+03 0.0000000000e+00 0.0000e+00 1.0000e+00
     -556  1    1    2    0    0 +1.1781919162e+02 -2.8523591287e+01 -4.3624794114e+02 4.9498204343e+02 2.0000000000e+02 0.0000e+00 -1.0000e+00
      556  1    1    2    0    0 -1.1781919162e+02 +2.8523591287e+01 -7.1242837280e+02 7.4983274372e+02 2.0000000000e+02 0.0000e+00 1.0000e+00
<mgrwt>
<rscale>  0 0.47969426E+03</rscale>
<asrwt>0</asrwt>
<pdfrwt beam="2">  1        2 0.18411467E+00 0.47969426E+03</pdfrwt>
<pdfrwt beam="1">  1       -2 0.73952682E-02 0.47969426E+03</pdfrwt>
<totfact> 0.21438744E+03</totfact>
</mgrwt>
</event>
<event>
 4      1 +1.5204000e-02 5.18981600e+02 7.81860800e-03 1.00894000e-01
        3 -1    0    0  501    0 +0.0000000000e+00 +0.0000000000e+00 +1.4034191129e+02 1.4034191129e+02 0.0000000000e+00 0.0000e+00 -1.0000e+00
       -3 -1    0    0    0  501 -0.0000000000e+00 -0.0000000000e+00 -4.7979588111e+02 4.7979588111e+02 0.0000000000e+00 0.0000e+00 1.0000e+00
     -556  1    1    2    0    0 -1.2374430173e+02 +3.1541386637e+01 -2.9520967988e+02 3.7875620968e+02 2.0000000000e+02 0.0000e+00 1.0000e+00
      556  1    1    2    0    0 +1.2374430173e+02 -3.1541386637e+01 -4.4244289940e+01 2.4138158272e+02 2.0000000000e+02 0.0000e+00 -1.0000e+00
<mgrwt>
<rscale>  0 0.51898158E+03</rscale>
<asrwt>0</asrwt>
<pdfrwt beam="1">  1        3 0.21591063E-01 0.51898158E+03</pdfrwt>
<pdfrwt beam="2">  1       -3 0.73814752E-01 0.51898158E+03</pdfrwt>
<totfact> 0.90666786E+01</totfact>
</mgrwt>
</event>
<event>
 4      1 +1.5204000e-02 5.60625300e+02 7.81860800e-03 9.99064100e-02
       -2 -1    0    0    0  501 -0.0000000000e+00 +0.0000000000e+00 +5.2847510969e+02 5.2847510969e+02 0.0000000000e+00 0.0000e+00 -1.0000e+00
        2 -1    0    0  501    0 +0.0000000000e+00 -0.0000000000e+00 -1.4868286082e+02 1.4868286082e+02 0.0000000000e+00 0.0000e+00 1.0000e+00
     -556  1    1    2    0    0 -1.7212698418e+02 +9.2612055672e+01 +1.6664675537e+02 3.2553929504e+02 2.0000000000e+02 0.0000e+00 -1.0000e+00
      556  1    1    2    0    0 +1.7212698418e+02 -9.2612055672e+01 +2.1314549350e+02 3.5161867546e+02 2.0000000000e+02 0.0000e+00 1.0000e+00
<mgrwt>
<rscale>  0 0.56062533E+03</rscale>
<asrwt>0</asrwt>
<pdfrwt beam="2">  1        2 0.22874287E-01 0.56062533E+03</pdfrwt>
<pdfrwt beam="1">  1       -2 0.81303862E-01 0.56062533E+03</pdfrwt>
<totfact> 0.32721455E+02</totfact>
</mgrwt>
</event>
<event>
 4      1 +1.5204000e-02 8.60824000e+02 7.81860800e-03 9.47592300e-02
       -1 -1    0    0    0  501 -0.0000000000e+00 +0.0000000000e+00 +9.2175737651e+01 9.2175737651e+01 0.0000000000e+00 0.0000e+00 1.0000e+00
        1 -1    0    0  501    0 +0.0000000000e+00 -0.0000000000e+00 -2.0097965481e+03 2.0097965481e+03 0.0000000000e+00 0.0000e+00 -1.0000e+00
     -556  1    1    2    0    0 -1.2218318134e+02 +4.6744251714e+01 -8.4720270657e+01 2.5355725020e+02 2.0000000000e+02 0.0000e+00 1.0000e+00
      556  1    1    2    0    0 +1.2218318134e+02 -4.6744251714e+01 -1.8329005398e+03 1.8484150355e+03 2.0000000000e+02 0.0000e+00 -1.0000e+00
<mgrwt>
<rscale>  0 0.86082398E+03</rscale>
<asrwt>0</asrwt>
<pdfrwt beam="2">  1        1 0.30919945E+00 0.86082398E+03</pdfrwt>
<pdfrwt beam="1">  1       -1 0.14180884E-01 0.86082398E+03</pdfrwt>
<totfact> 0.10787129E+02</totfact>
</mgrwt>
</event>
<event>
 4      1 +1.5204000e-02 5.79890500e+02 7.81860800e-03 9.94802800e-02
       -2 -1    0    0    0  501 -0.0000000000e+00 +0.0000000000e+00 +5.7584792553e+02 5.7584792553e+02 0.0000000000e+00 0.0000e+00 1.0000e+00
        2 -1    0    0  501    0 +0.0000000000e+00 -0.0000000000e+00 -1.4599034794e+02 1.4599034794e+02 0.0000000000e+00 0.0000e+00 -1.0000e+00
     -556  1    1    2    0    0 -1.0167351560e+02 -1.7532438892e+02 +1.4683906960e+02 3.2037143675e+02 2.0000000000e+02 0.0000e+00 -1.0000e+00
      556  1    1    2    0    0 +1.0167351560e+02 +1.7532438892e+02 +2.8301850799e+02 4.0146683672e+02 2.0000000000e+02 0.0000e+00 1.0000e+00
<mgrwt>
<rscale>  0 0.57989047E+03</rscale>
<asrwt>0</asrwt>
<pdfrwt beam="2">  1        2 0.22460054E-01 0.57989047E+03</pdfrwt>
<pdfrwt beam="1">  1       -2 0.88591987E-01 0.57989047E+03</pdfrwt>
<totfact> 0.27500230E+02</totfact>
</mgrwt>
</event>
<event>
 4      1 +1.5204000e-02 6.58400000e+02 7.81860800e-03 9.79114400e-02
       -2 -1    0    0    0  501 -0.0000000000e+00 +0.0000000000e+00 +5.8886628640e+01 5.8886628640e+01 0.0000000000e+00 0.0000e+00 1.0000e+00
        2 -1    0    0  501    0 +0.0000000000e+00 -0.0000000000e+00 -1.8403608414e+03 1.8403608414e+03 0.0000000000e+00 0.0000e+00 -1.0000e+00
     -556  1    1    2    0    0 +7.1651379091e+01 -3.2274781260e+01 -1.7132678397e+02 2.7482439582e+02 2.0000000000e+02 0.0000e+00 1.0000e+00
      556  1    1    2    0    0 -7.1651379091e+01 +3.2274781260e+01 -1.6101474288e+03 1.6244230743e+03 2.0000000000e+02 0.0000e+00 -1.0000e+00
<mgrwt>
<rscale>  0 0.65840002E+03</rscale>
<asrwt>0</asrwt>
<pdfrwt beam="2">  1        2 0.28313241E+00 0.65840002E+03</pdfrwt>
<pdfrwt beam="1">  1       -2 0.90594822E-02 0.65840002E+03</pdfrwt>
<totfact> 0.67696310E+02</totfact>
</mgrwt>
</event>
<event>
 4      1 +1.5204000e-02 7.48328400e+02 7.81860800e-03 9.63797600e-02
        2 -1    0    0  501    0 +0.0000000000e+00 +0.0000000000e+00 +4.2070347589e+02 4.2070347589e+02 0.0000000000e+00 0.0000e+00 -1.0000e+00
       -2 -1    0    0    0  501 -0.0000000000e+00 -0.0000000000e+00 -3.3277322106e+02 3.3277322106e+02 0.0000000000e+00 0.0000e+00 1.0000e+00
     -556  1    1    2    0    0 -1.1086804221e+02 +1.7247997404e+02 +2.8636561543e+02 4.0502633238e+02 2.0000000000e+02 0.0000e+00 -1.0000e+00
      556  1    1    2    0    0 +1.1086804221e+02 -1.7247997404e+02 -1.9843536060e+02 3.4845036456e+02 2.0000000000e+02 0.0000e+00 1.0000e+00
<mgrwt>
<rscale>  0 0.74832841E+03</rscale>
<asrwt>0</asrwt>
<pdfrwt beam="1">  1        2 0.64723612E-01 0.74832841E+03</pdfrwt>
<pdfrwt beam="2">  1       -2 0.51195880E-01 0.74832841E+03</pdfrwt>
<totfact> 0.27307471E+02</totfact>
</mgrwt>
</event>
<event>
 4      1 +1.5204000e-02 5.07838800e+02 7.81860800e-03 1.01175300e-01
        1 -1    0    0  501    0 +0.0000000000e+00 +0.0000000000e+00 +6.6956482515e+02 6.6956482515e+02 0.0000000000e+00 0.0000e+00 -1.0000e+00
       -1 -1    0    0    0  501 -0.0000000000e+00 -0.0000000000e+00 -9.6293985173e+01 9.6293985173e+01 0.0000000000e+00 0.0000e+00 1.0000e+00
     -556  1    1    2    0    0 -7.5683343517e+00 +1.0527055723e+02 +4.6078960392e+02 5.1328961512e+02 2.0000000000e+02 0.0000e+00 -1.0000e+00
      556  1    1    2    0    0 +7.5683343517e+00 -1.0527055723e+02 +1.1248123606e+02 2.5256919521e+02 2.0000000000e+02 0.0000e+00 1.0000e+00
<mgrwt>
<rscale>  0 0.50783881E+03</rscale>
<asrwt>0</asrwt>
<pdfrwt beam="1">  1        1 0.10300997E+00 0.50783881E+03</pdfrwt>
<pdfrwt beam="2">  1       -1 0.14814460E-01 0.50783881E+03</pdfrwt>
<totfact> 0.98485186E+02</totfact>
</mgrwt>
</event>
<event>
 4      1 +1.5204000e-02 6.70015400e+02 7.81860800e-03 9.76993000e-02
        2 -1    0    0  501    0 +0.0000000000e+00 +0.0000000000e+00 +1.1910346641e+03 1.1910346641e+03 0.0000000000e+00 0.0000e+00 -1.0000e+00
       -2 -1    0    0    0  501 -0.0000000000e+00 -0.0000000000e+00 -9.4229123685e+01 9.4229123685e+01 0.0000000000e+00 0.0000e+00 1.0000e+00
     -556  1    1    2    0    0 -2.3844212172e+01 +2.3818278150e+02 +3.1400920988e+02 4.4260746463e+02 2.0000000000e+02 0.0000e+00 1.0000e+00
      556  1    1    2    0    0 +2.3844212172e+01 -2.3818278150e+02 +7.8279633052e+02 8.4265632314e+02 2.0000000000e+02 0.0000e+00 -1.0000e+00
<mgrwt>
<rscale>  0 0.67001538E+03</rscale>
<asrwt>0</asrwt>
<pdfrwt beam="1">  1        2 0.18323609E+00 0.67001538E+03</pdfrwt>
<pdfrwt beam="2">  1       -2 0.14496789E-01 0.67001538E+03</pdfrwt>
<totfact> 0.71898833E+02</totfact>
</mgrwt>
</event>
<event>
 4      1 +1.5204000e-02 8.24817300e+02 7.81860800e-03 9.52477400e-02
       -2 -1    0    0    0  501 -0.0000000000e+00 +0.0000000000e+00 +1.1585843407e+02 1.1585843407e+02 0.0000000000e+00 0.0000e+00 1.0000e+00
        2 -1    0    0  501    0 +0.0000000000e+00 -0.0000000000e+00 -1.4680063178e+03 1.4680063178e+03 0.0000000000e+00 0.0000e+00 -1.0000e+00
     -556  1    1    2    0    0 +1.7836195062e+00 -2.4107410441e+02 -1.1911945538e+03 1.2316916701e+03 2.0000000000e+02 0.0000e+00 -1.0000e+00
      556  1    1    2    0    0 -1.7836195062e+00 +2.4107410441e+02 -1.6095332990e+02 3.5217308177e+02 2.0000000000e+02 0.0000e+00 1.0000e+00
<mgrwt>
<rscale>  0 0.82481735E+03</rscale>
<asrwt>0</asrwt>
<pdfrwt beam="2">  1        2 0.22584713E+00 0.82481735E+03</pdfrwt>
<pdfrwt beam="1">  1       -2 0.17824374E-01 0.82481735E+03</pdfrwt>
<totfact> 0.34791403E+02</totfact>
</mgrwt>
</event>
<event>
 4      1 +1.5204000e-02 5.06806800e+02 7.81860800e-03 1.01201700e-01
        2 -1    0    0  501    0 +0.0000000000e+00 +0.0000000000e+00 +4.9793923471e+01 4.9793923471e+01 0.0000000000e+00 0.0000e+00 -1.0000e+00
       -2 -1    0    0    0  501 -0.0000000000e+00 -0.0000000000e+00 -1.2895807688e+03 1.2895807688e+03 0.0000000000e+00 0.0000e+00 1.0000e+00
     -556  1    1    2    0    0 -1.5321084981e+02 -1.0526107980e+01 -5.5361712090e+02 6.0833895157e+02 2.0000000000e+02 0.0000e+00 -1.0000e+00
      556  1    1    2    0    0 +1.5321084981e+02 +1.0526107980e+01 -6.8616972441e+02 7.3103574067e+02 2.0000000000e+02 0.0000e+00 1.0000e+00
<mgrwt>
<rscale>  0 0.50680681E+03</rscale>
<asrwt>0</asrwt>
<pdfrwt beam="1">  1        2 0.76606034E-02 0.50680681E+03</pdfrwt>
<pdfrwt beam="2">  1       -2 0.19839705E+00 0.50680681E+03</pdfrwt>
<totfact> 0.13139717E+02</totfact>
</mgrwt>
</event>
<event>
 4      1 +1.5204000e-02 6.98688200e+02 7.81860800e-03 9.71947800e-02
       -1 -1    0    0    0  501 -0.0000000000e+00 +0.0000000000e+00 +3.6005642140e+01 3.6005642140e+01 0.0000000000e+00 0.0000e+00 1.0000e+00
        1 -1    0    0  501    0 +0.0000000000e+00 -0.0000000000e+00 -3.3895050817e+03 3.3895050817e+03 0.0000000000e+00 0.0000e+00 -1.0000e+00
     -556  1    1    2    0    0 -5.9241841747e+00 -2.6324616626e+02 -2.2294310874e+03 2.2538182299e+03 2.0000000000e+02 0.0000e+00 -1.0000e+00
      556  1    1    2    0    0 +5.9241841747e+00 +2.6324616626e+02 -1.1240683522e+03 1.1716924940e+03 2.0000000000e+02 0.0000e+00 1.0000e+00
<mgrwt>
<rscale>  0 0.69868822E+03</rscale>
<asrwt>0</asrwt>
<pdfrwt beam="2">  1        1 0.52146247E+00 0.69868822E+03</pdfrwt>
<pdfrwt beam="1">  1       -1 0.55393280E-02 0.69868822E+03</pdfrwt>
<totfact> 0.52174665E+01</totfact>
</mgrwt>
</event>
<event>
 4      1 +1.5204000e-02 4.98896500e+02 7.81860800e-03 1.01406700e-01
        2 -1    0    0  501    0 +0.0000000000e+00 +0.0000000000e+00 +4.5438738980e+02 4.5438738980e+02 0.0000000000e+00 0.0000e+00 1.0000e+00
       -2 -1    0    0    0  501 -0.0000000000e+00 -0.0000000000e+00 -1.3694137229e+02 1.3694137229e+02 0.0000000000e+00 0.0000e+00 -1.0000e+00
     -556  1    1    2    0    0 -1.2266566181e+02 +4.1640059162e+01 +7.1272050377e+01 2.4871763966e+02 2.0000000000e+02 0.0000e+00 -1.0000e+00
      556  1    1    2    0    0 +1.2266566181e+02 -4.1640059162e+01 +2.4617396713e+02 3.4261112242e+02 2.0000000000e+02 0.0000e+00 1.0000e+00
<mgrwt>
<rscale>  0 0.49889651E+03</rscale>
<asrwt>0</asrwt>
<pdfrwt beam="1">  1        2 0.69905752E-01 0.49889651E+03</pdfrwt>
<pdfrwt beam="2">  1       -2 0.21067904E-01 0.49889651E+03</pdfrwt>
<totfact> 0.13384053E+03</totfact>
</mgrwt>
</event>
<event>
 4      1 +1.5204000e-02 5.04027200e+02 7.81860800e-03 1.01273300e-01
       -2 -1    0    0    0  501 -0.0000000000e+00 +0.0000000000e+00 +2.5697750229e+02 2.5697750229e+02 0.0000000000e+00 0.0000e+00 1.0000e+00
        2 -1    0    0  501    0 +0.0000000000e+00 -0.0000000000e+00 -2.4714560367e+02 2.4714560367e+02 0.0000000000e+00 0.0000e+00 -1.0000e+00
     -556  1    1    2    0    0 -1.3588230646e+02 +6.6971457789e+00 -6.5822373251e+01 2.5068194548e+02 2.0000000000e+02 0.0000e+00 -1.0000e+00
      556  1    1    2    0    0 +1.3588230646e+02 -6.6971457789e+00 +7.5654271867e+01 2.5344116048e+02 2.0000000000e+02 0.0000e+00 1.0000e+00
<mgrwt>
<rscale>  0 0.50402722E+03</rscale>
<asrwt>0</asrwt>
<pdfrwt beam="2">  1        2 0.38022401E-01 0.50402722E+03</pdfrwt>
<pdfrwt beam="1">  1       -2 0.39535000E-01 0.50402722E+03</pdfrwt>
<totfact> 0.82786268E+02</totfact>
</mgrwt>
</event>
<event>
 4      1 +1.5204000e-02 5.74988500e+02 7.81860800e-03 9.95870000e-02
        4 -1    0    0  501    0 +0.0000000000e+00 +0.0000000000e+00 +1.3101024426e+02 1.3101024426e+02 0.0000000000e+00 0.0000e+00 -1.0000e+00
       -4 -1    0    0    0  501 -0.0000000000e+00 -0.0000000000e+00 -6.3088910363e+02 6.3088910363e+02 0.0000000000e+00 0.0000e+00 1.0000e+00
     -556  1    1    2    0    0 +1.2805555459e+02 -1.6202149949e+02 -2.5250343216e+02 3.8263190485e+02 2.0000000000e+02 0.0000e+00 1.0000e+00
      556  1    1    2    0    0 -1.2805555459e+02 +1.6202149949e+02 -2.4737542721e+02 3.7926744304e+02 2.0000000000e+02 0.0000e+00 -1.0000e+00
<mgrwt>
<rscale>  0 0.57498847E+03</rscale>
<asrwt>0</asrwt>
<pdfrwt beam="1">  1        4 0.20155422E-01 0.57498847E+03</pdfrwt>
<pdfrwt beam="2">  1       -4 0.97059861E-01 0.57498847E+03</pdfrwt>
<totfact> 0.39769786E+01</totfact>
</mgrwt>
</event>
<event>
 4      1 +1.5204000e-02 6.28811100e+02 7.81860800e-03 9.84737200e-02
       -2 -1    0    0    0  501 -0.0000000000e+00 +0.0000000000e+00 +4.1138518988e+02 4.1138518988e+02 0.0000000000e+00 0.0000e+00 1.0000e+00
        2 -1    0    0  501    0 +0.0000000000e+00 -0.0000000000e+00 -2.4028780872e+02 2.4028780872e+02 0.0000000000e+00 0.0000e+00 -1.0000e+00
     -556  1    1    2    0    0 +5.6974078029e+01 -2.3175381269e+02 +4.0434749401e+01 3.1399179006e+02 2.0000000000e+02 0.0000e+00 -1.0000e+00
      556  1    1    2    0    0 -5.6974078029e+01 +2.3175381269e+02 +1.3066263176e+02 3.3768120854e+02 2.0000000000e+02 0.0000e+00 1.0000e+00
<mgrwt>
<rscale>  0 0.62881109E+03</rscale>
<asrwt>0</asrwt>
<pdfrwt beam="2">  1        2 0.36967355E-01 0.62881109E+03</pdfrwt>
<pdfrwt beam="1">  1       -2 0.63290029E-01 0.62881109E+03</pdfrwt>
<totfact> 0.32849446E+02</totfact>
</mgrwt>
</event>
<event>
 4      1 +1.5204000e-02 6.47455600e+02 7.81860800e-03 9.81156500e-02
        1 -1    0    0  501    0 +0.0000000000e+00 +0.0000000000e+00 +2.2932807151e+02 2.2932807151e+02 0.0000000000e+00 0.0000e+00 -1.0000e+00
       -1 -1    0    0    0  501 -0.0000000000e+00 -0.0000000000e+00 -4.5698581681e+02 4.5698581681e+02 0.0000000000e+00 0.0000e+00 1.0000e+00
     -556  1    1    2    0    0 -1.1212636210e+02 +2.2704633467e+02 -1.4141614615e+02 3.5230794138e+02 2.0000000000e+02 0.0000e+00 -1.0000e+00
      556  1    1    2    0    0 +1.1212636210e+02 -2.2704633467e+02 -8.6241599161e+01 3.3400594694e+02 2.0000000000e+02 0.0000e+00 1.0000e+00
<mgrwt>
<rscale>  0 0.64745556E+03</rscale>
<asrwt>0</asrwt>
<pdfrwt beam="1">  1        1 0.35281242E-01 0.64745556E+03</pdfrwt>
<pdfrwt beam="2">  1       -1 0.70305510E-01 0.64745556E+03</pdfrwt>
<totfact> 0.25827910E+02</totfact>
</mgrwt>
</event>
<event>
 4      1 +1.5204000e-02 6.28163800e+02 7.81860800e-03 9.84863900e-02
       -1 -1    0    0    0  501 -0.0000000000e+00 +0.0000000000e+00 +8.4524784357e+01 8.4524784357e+01 0.0000000000e+00 0.0000e+00 1.0000e+00
        1 -1    0    0  501    0 +0.0000000000e+00 -0.0000000000e+00 -1.1670828892e+03 1.1670828892e+03 0.0000000000e+00 0.0000e+00 -1.0000e+00
     -556  1    1    2    0    0 -1.2420561402e+02 +2.0152361166e+02 -4.3951333759e+02 5.3778320402e+02 2.0000000000e+02 0.0000e+00 -1.0000e+00
      556  1    1    2    0    0 +1.2420561402e+02 -2.0152361166e+02 -6.4304476722e+02 7.1382446950e+02 2.0000000000e+02 0.0000e+00 1.0000e+00
<mgrwt>
<rscale>  0 0.62816377E+03</rscale>
<asrwt>0</asrwt>
<pdfrwt beam="2">  1        1 0.17955119E+00 0.62816377E+03</pdfrwt>
<pdfrwt beam="1">  1       -1 0.13003815E-01 0.62816377E+03</pdfrwt>
<totfact> 0.47667259E+02</totfact>
</mgrwt>
</event>
<event>
 4      1 +1.5204000e-02 4.56257600e+02 7.81860800e-03 1.02587200e-01
       -1 -1    0    0    0  501 -0.0000000000e+00 +0.0000000000e+00 +1.6400912684e+02 1.6400912684e+02 0.0000000000e+00 0.0000e+00 1.0000e+00
        1 -1    0    0  501    0 +0.0000000000e+00 -0.0000000000e+00 -3.1731619435e+02 3.1731619435e+02 0.0000000000e+00 0.0000e+00 -1.0000e+00
     -556  1    1    2    0    0 -6.0894810399e+01 +1.4142174493e+01 +1.8493656000e+01 2.1035730162e+02 2.0000000000e+02 0.0000e+00 1.0000e+00
      556  1    1    2    0    0 +6.0894810399e+01 -1.4142174493e+01 -1.7180072350e+02 2.7096801957e+02 2.0000000000e+02 0.0000e+00 -1.0000e+00
<mgrwt>
<rscale>  0 0.45625761E+03</rscale>
<asrwt>0</asrwt>
<pdfrwt beam="2">  1        1 0.48817876E-01 0.45625761E+03</pdfrwt>
<pdfrwt beam="1">  1       -1 0.25232174E-01 0.45625761E+03</pdfrwt>
<totfact> 0.11229289E+03</totfact>
</mgrwt>
</event>
<event>
 4      1 +1.5204000e-02 7.12880900e+02 7.81860800e-03 9.69545400e-02
        1 -1    0    0  501    0 +0.0000000000e+00 +0.0000000000e+00 +1.6540453027e+03 1.6540453027e+03 0.0000000000e+00 0.0000e+00 -1.0000e+00
       -1 -1    0    0    0  501 -0.0000000000e+00 -0.0000000000e+00 -7.6811562542e+01 7.6811562542e+01 0.0000000000e+00 0.0000e+00 1.0000e+00
     -556  1    1    2    0    0 +2.4729609403e+02 -7.6413134132e+01 +1.1324602594e+03 1.1787538184e+03 2.0000000000e+02 0.0000e+00 -1.0000e+00
      556  1    1    2    0    0 -2.4729609403e+02 +7.6413134132e+01 +4.4477348079e+02 5.5210304690e+02 2.0000000000e+02 0.0000e+00 1.0000e+00
<mgrwt>
<rscale>  0 0.71288093E+03</rscale>
<asrwt>0</asrwt>
<pdfrwt beam="1">  1        1 0.25446848E+00 0.71288093E+03</pdfrwt>
<pdfrwt beam="2">  1       -1 0.11817165E-01 0.71288093E+03</pdfrwt>
<totfact> 0.25373708E+02</totfact>
</mgrwt>
</event>
<event>
 4      1 +1.5204000e-02 5.91547400e+02 7.81860800e-03 9.92309900e-02
        1 -1    0    0  501    0 +0.0000000000e+00 +0.0000000000e+00 +1.3082461965e+03 1.3082461965e+03 0.0000000000e+00 0.0000e+00 -1.0000e+00
       -1 -1    0    0    0  501 -0.0000000000e+00 -0.0000000000e+00 -6.6869747269e+01 6.6869747269e+01 0.0000000000e+00 0.0000e+00 1.0000e+00
     -556  1    1    2    0    0 +3.4395293002e+01 -6.3795617197e+00 +1.2071718973e+02 2.3621256293e+02 2.0000000000e+02 0.0000e+00 1.0000e+00
      556  1    1    2    0    0 -3.4395293002e+01 +6.3795617197e+00 +1.1206592595e+03 1.1389033808e+03 2.0000000000e+02 0.0000e+00 -1.0000e+00
<mgrwt>
<rscale>  0 0.59154744E+03</rscale>
<asrwt>0</asrwt>
<pdfrwt beam="1">  1        1 0.20126863E+00 0.59154744E+03</pdfrwt>
<pdfrwt beam="2">  1       -1 0.10287654E-01 0.59154744E+03</pdfrwt>
<totfact> 0.55003143E+02</totfact>
</mgrwt>
</event>
<event>
 4      1 +1.5204000e-02 1.03259600e+03 7.81860800e-03 9.27350000e-02
       -1 -1    0    0    0  501 -0.0000000000e+00 +0.0000000000e+00 +2.8015398497e+02 2.8015398497e+02 0.0000000000e+00 0.0000e+00 1.0000e+00
        1 -1    0    0  501    0 +0.0000000000e+00 -0.0000000000e+00 -9.5148881161e+02 9.5148881161e+02 0.0000000000e+00 0.0000e+00 -1.0000e+00
     -556  1    1    2    0    0 +2.9166719490e+02 -3.5793928155e+02 -4.7360117566e+02 6.9100532230e+02 2.0000000000e+02 0.0000e+00 -1.0000e+00
      556  1    1    2    0    0 -2.9166719490e+02 +3.5793928155e+02 -1.9773365097e+02 5.4063747427e+02 2.0000000000e+02 0.0000e+00 1.0000e+00
<mgrwt>
<rscale>  0 0.10325955E+04</rscale>
<asrwt>0</asrwt>
<pdfrwt beam="2">  1        1 0.14638289E+00 0.10325955E+04</pdfrwt>
<pdfrwt beam="1">  1       -1 0.43100613E-01 0.10325955E+04</pdfrwt>
<totfact> 0.87720970E+01</totfact>
</mgrwt>
</event>
<event>
 4      1 +1.5204000e-02 9.78012700e+02 7.81860800e-03 9.33299400e-02
        4 -1    0    0  501    0 +0.0000000000e+00 +0.0000000000e+00 +1.6892060787e+03 1.6892060787e+03 0.0000000000e+00 0.0000e+00 -1.0000e+00
       -4 -1    0    0    0  501 -0.0000000000e+00 -0.0000000000e+00 -1.4156190592e+02 1.4156190592e+02 0.0000000000e+00 0.0000e+00 1.0000e+00
     -556  1    1    2    0    0 -8.5656177299e+01 -2.1009458740e+02 +1.4931158238e+03 1.5234407044e+03 2.0000000000e+02 0.0000e+00 -1.0000e+00
      556  1    1    2    0    0 +8.5656177299e+01 +2.1009458740e+02 +5.4528348984e+01 3.0732728028e+02 2.0000000000e+02 0.0000e+00 1.0000e+00
<mgrwt>
<rscale>  0 0.97801274E+03</rscale>
<asrwt>0</asrwt>
<pdfrwt beam="1">  1        4 0.25987784E+00 0.97801274E+03</pdfrwt>
<pdfrwt beam="2">  1       -4 0.21778756E-01 0.97801274E+03</pdfrwt>
<totfact> 0.21801305E+00</totfact>
</mgrwt>
</event>
<event>
 4      1 +1.5204000e-02 5.79589500e+02 7.81860800e-03 9.94868000e-02
       -2 -1    0    0    0  501 -0.0000000000e+00 +0.0000000000e+00 +1.1684879350e+02 1.1684879350e+02 0.0000000000e+00 0.0000e+00 1.0000e+00
        2 -1    0    0  501    0 +0.0000000000e+00 -0.0000000000e+00 -7.1871518733e+02 7.1871518733e+02 0.0000000000e+00 0.0000e+00 -1.0000e+00
     -556  1    1    2    0    0 +2.0324662816e+02 +4.9339950186e+01 -3.2314486725e+02 4.3378131330e+02 2.0000000000e+02 0.0000e+00 1.0000e+00
      556  1    1    2    0    0 -2.0324662816e+02 -4.9339950186e+01 -2.7872152658e+02 4.0178266753e+02 2.0000000000e+02 0.0000e+00 -1.0000e+00
<mgrwt>
<rscale>  0 0.57958952E+03</rscale>
<asrwt>0</asrwt>
<pdfrwt beam="2">  1        2 0.11057157E+00 0.57958952E+03</pdfrwt>
<pdfrwt beam="1">  1       -2 0.17976738E-01 0.57958952E+03</pdfrwt>
<totfact> 0.10226389E+03</totfact>
</mgrwt>
</event>
<event>
 4      1 +1.5204000e-02 5.29542700e+02 7.81860800e-03 1.00634300e-01
        2 -1    0    0  501    0 +0.0000000000e+00 +0.0000000000e+00 +2.6810865953e+03 2.6810865953e+03 0.0000000000e+00 0.0000e+00 -1.0000e+00
       -2 -1    0    0    0  501 -0.0000000000e+00 -0.0000000000e+00 -2.6147559920e+01 2.6147559920e+01 0.0000000000e+00 0.0000e+00 1.0000e+00
     -556  1    1    2    0    0 -1.4697818413e+02 -8.7967252295e+01 +1.1862480113e+03 1.2151235198e+03 2.0000000000e+02 0.0000e+00 1.0000e+00
      556  1    1    2    0    0 +1.4697818413e+02 +8.7967252295e+01 +1.4686910241e+03 1.4921106354e+03 2.0000000000e+02 0.0000e+00 -1.0000e+00
<mgrwt>
<rscale>  0 0.52954272E+03</rscale>
<asrwt>0</asrwt>
<pdfrwt beam="1">  1        2 0.41247464E+00 0.52954272E+03</pdfrwt>
<pdfrwt beam="2">  1       -2 0.40227036E-02 0.52954272E+03</pdfrwt>
<totfact> 0.83846843E+02</totfact>
</mgrwt>
</event>
<event>
 4      1 +1.5204000e-02 8.60855500e+02 7.81860800e-03 9.47588200e-02
       -1 -1    0    0    0  501 -0.0000000000e+00 +0.0000000000e+00 +6.1659862509e+02 6.1659862509e+02 0.0000000000e+00 0.0000e+00 1.0000e+00
        1 -1    0    0  501    0 +0.0000000000e+00 -0.0000000000e+00 -3.0046781683e+02 3.0046781683e+02 0.0000000000e+00 0.0000e+00 -1.0000e+00
     -556  1    1    2    0    0 -1.2898735237e+02 +3.5676265898e+02 +1.1891360364e+02 4.4503682662e+02 2.0000000000e+02 0.0000e+00 1.0000e+00
      556  1    1    2    0    0 +1.2898735237e+02 -3.5676265898e+02 +1.9721720463e+02 4.7202961530e+02 2.0000000000e+02 0.0000e+00 -1.0000e+00
<mgrwt>
<rscale>  0 0.86085549E+03</rscale>
<asrwt>0</asrwt>
<pdfrwt beam="2">  1        1 0.46225818E-01 0.86085549E+03</pdfrwt>
<pdfrwt beam="1">  1       -1 0.94861327E-01 0.86085549E+03</pdfrwt>
<totfact> 0.94962375E+01</totfact>
</mgrwt>
</event>
<event>
 4      1 +1.5204000e-02 5.75061900e+02 7.81860800e-03 9.95854000e-02
       -1 -1    0    0    0  501 -0.0000000000e+00 +0.0000000000e+00 +2.2982864579e+02 2.2982864579e+02 0.0000000000e+00 0.0000e+00 1.0000e+00
        1 -1    0    0  501    0 +0.0000000000e+00 -0.0000000000e+00 -3.5972032176e+02 3.5972032176e+02 0.0000000000e+00 0.0000e+00 -1.0000e+00
     -556  1    1    2    0    0 +1.3235572108e+02 -1.4969279539e+02 -1.1203224231e+01 2.8293370624e+02 2.0000000000e+02 0.0000e+00 -1.0000e+00
      556  1    1    2    0    0 -1.3235572108e+02 +1.4969279539e+02 -1.1868845173e+02 3.0661526131e+02 2.0000000000e+02 0.0000e+00 1.0000e+00
<mgrwt>
<rscale>  0 0.57506186E+03</rscale>
<asrwt>0</asrwt>
<pdfrwt beam="2">  1        1 0.55341588E-01 0.57506186E+03</pdfrwt>
<pdfrwt beam="1">  1       -1 0.35358253E-01 0.57506186E+03</pdfrwt>
<totfact> 0.53178722E+02</totfact>
</mgrwt>
</event>
<event>
 4      1 +1.5204000e-02 4.87048400e+02 7.81860800e-03 1.01721600e-01
        2 -1    0    0  501    0 +0.0000000000e+00 +0.0000000000e+00 +9.4283811696e+02 9.4283811696e+02 0.0000000000e+00 0.0000e+00 -1.0000e+00
       -2 -1    0    0    0  501 -0.0000000000e+00 -0.0000000000e+00 -6.2899481181e+01 6.2899481181e+01 0.0000000000e+00 0.0000e+00 1.0000e+00
     -556  1    1    2    0    0 +4.4010344283e+01 -5.5904871921e+01 +1.9353880877e+02 2.8726213744e+02 2.0000000000e+02 0.0000e+00 1.0000e+00
      556  1    1    2    0    0 -4.4010344283e+01 +5.5904871921e+01 +6.8639982701e+02 7.1847546070e+02 2.0000000000e+02 0.0000e+00 -1.0000e+00
<mgrwt>
<rscale>  0 0.48704837E+03</rscale>
<asrwt>0</asrwt>
<pdfrwt beam="1">  1        2 0.14505201E+00 0.48704837E+03</pdfrwt>
<pdfrwt beam="2">  1       -2 0.96768439E-02 0.48704837E+03</pdfrwt>
<totfact> 0.19961944E+03</totfact>
</mgrwt>
</event>
<event>
 4      1 +1.5204000e-02 8.50468000e+02 7.81860800e-03 9.48970900e-02
        2 -1    0    0  501    0 +0.0000000000e+00 +0.0000000000e+00 +8.6360722879e+02 8.6360722879e+02 0.0000000000e+00 0.0000e+00 1.0000e+00
       -2 -1    0    0    0  501 -0.0000000000e+00 -0.0000000000e+00 -2.0938217630e+02 2.0938217630e+02 0.0000000000e+00 0.0000e+00 -1.0000e+00
     -556  1    1    2    0    0 -3.3166848129e+02 -1.1258342479e+02 +1.5716479908e+02 4.3287386510e+02 2.0000000000e+02 0.0000e+00 -1.0000e+00
      556  1    1    2    0    0 +3.3166848129e+02 +1.1258342479e+02 +4.9706025341e+02 6.4011553999e+02 2.0000000000e+02 0.0000e+00 1.0000e+00
<mgrwt>
<rscale>  0 0.85046801E+03</rscale>
<asrwt>0</asrwt>
<pdfrwt beam="1">  1        2 0.13286265E+00 0.85046801E+03</pdfrwt>
<pdfrwt beam="2">  1       -2 0.32212643E-01 0.85046801E+03</pdfrwt>
<totfact> 0.27946042E+02</totfact>
</mgrwt>
</event>
<event>
 4      1 +1.5204000e-02 4.92861000e+02 7.81860800e-03 1.01565900e-01
        1 -1    0    0  501    0 +0.0000000000e+00 +0.0000000000e+00 +1.2055756592e+03 1.2055756592e+03 0.0000000000e+00 0.0000e+00 -1.0000e+00
       -1 -1    0    0    0  501 -0.0000000000e+00 -0.0000000000e+00 -5.0372609289e+01 5.0372609289e+01 0.0000000000e+00 0.0000e+00 1.0000e+00
     -556  1    1    2    0    0 +1.6073332582e+01 +1.3569959212e+02 +4.6207526443e+02 5.2171475091e+02 2.0000000000e+02 0.0000e+00 1.0000e+00
      556  1    1    2    0    0 -1.6073332582e+01 -1.3569959212e+02 +6.9312778544e+02 7.3423351753e+02 2.0000000000e+02 0.0000e+00 -1.0000e+00
<mgrwt>
<rscale>  0 0.49286100E+03</rscale>
<asrwt>0</asrwt>
<pdfrwt beam="1">  1        1 0.18547316E+00 0.49286100E+03</pdfrwt>
<pdfrwt beam="2">  1       -1 0.77496331E-02 0.49286100E+03</pdfrwt>
<totfact> 0.10175801E+03</totfact>
</mgrwt>
</event>
<event>
 4      1 +1.5204000e-02 9.06108200e+02 7.81860800e-03 9.41797800e-02
        1 -1    0    0  501    0 +0.0000000000e+00 +0.0000000000e+00 +1.6892781358e+03 1.6892781358e+03 0.0000000000e+00 0.0000e+00 -1.0000e+00
       -1 -1    0    0    0  501 -0.0000000000e+00 -0.0000000000e+00 -1.2150635001e+02 1.2150635001e+02 0.0000000000e+00 0.0000e+00 1.0000e+00
     -556  1    1    2    0    0 -2.0343019018e+02 -3.4076299466e+02 +9.5986895561e+02 1.0577578517e+03 2.0000000000e+02 0.0000e+00 -1.0000e+00
      556  1    1    2    0    0 +2.0343019018e+02 +3.4076299466e+02 +6.0790283021e+02 7.5302663418e+02 2.0000000000e+02 0.0000e+00 1.0000e+00
<mgrwt>
<rscale>  0 0.90610821E+03</rscale>
<asrwt>0</asrwt>
<pdfrwt beam="1">  1        1 0.25988893E+00 0.90610821E+03</pdfrwt>
<pdfrwt beam="2">  1       -1 0.18693286E-01 0.90610821E+03</pdfrwt>
<totfact> 0.11216614E+02</totfact>
</mgrwt>
</event>
<event>
 4      1 +1.5204000e-02 7.48275200e+02 7.81860800e-03 9.63806000e-02
        2 -1    0    0  501    0 +0.0000000000e+00 +0.0000000000e+00 +3.9868135024e+02 3.9868135024e+02 0.0000000000e+00 0.0000e+00 -1.0000e+00
       -2 -1    0    0    0  501 -0.0000000000e+00 -0.0000000000e+00 -3.5110479435e+02 3.5110479435e+02 0.0000000000e+00 0.0000e+00 1.0000e+00
     -556  1    1    2    0    0 -7.9745760834e+01 +2.7004294967e+02 -1.2036448831e+02 3.6574607460e+02 2.0000000000e+02 0.0000e+00 1.0000e+00
      556  1    1    2    0    0 +7.9745760834e+01 -2.7004294967e+02 +1.6794104420e+02 3.8404007000e+02 2.0000000000e+02 0.0000e+00 -1.0000e+00
<mgrwt>
<rscale>  0 0.74827517E+03</rscale>
<asrwt>0</asrwt>
<pdfrwt beam="1">  1        2 0.61335593E-01 0.74827517E+03</pdfrwt>
<pdfrwt beam="2">  1       -2 0.54016122E-01 0.74827517E+03</pdfrwt>
<totfact> 0.25987511E+02</totfact>
</mgrwt>
</event>
<event>
 4      1 +1.5204000e-02 6.91410300e+02 7.81860800e-03 9.73203500e-02
        1 -1    0    0  501    0 +0.0000000000e+00 +0.0000000000e+00 +4.3251036034e+02 4.3251036034e+02 0.0000000000e+00 0.0000e+00 -1.0000e+00
       -1 -1    0    0    0  501 -0.0000000000e+00 -0.0000000000e+00 -2.7632183427e+02 2.7632183427e+02 0.0000000000e+00 0.0000e+00 1.0000e+00
     -556  1    1    2    0    0 -1.0948873509e+02 -6.5071069499e+01 -1.7981992103e+02 2.9758567035e+02 2.0000000000e+02 0.0000e+00 1.0000e+00
      556  1    1    2    0    0 +1.0948873509e+02 +6.5071069499e+01 +3.3600844710e+02 4.1124652426e+02 2.0000000000e+02 0.0000e+00 -1.0000e+00
<mgrwt>
<rscale>  0 0.69141032E+03</rscale>
<asrwt>0</asrwt>
<pdfrwt beam="1">  1        1 0.66540055E-01 0.69141032E+03</pdfrwt>
<pdfrwt beam="2">  1       -1 0.42511052E-01 0.69141032E+03</pdfrwt>
<totfact> 0.29796737E+02</totfact>
</mgrwt>
</event>
<event>
 4      1 +1.5204000e-02 8.28590300e+02 7.81860800e-03 9.51953200e-02
        2 -1    0    0  501    0 +0.0000000000e+00 +0.0000000000e+00 +1.6861439765e+03 1.6861439765e+03 0.0000000000e+00 0.0000e+00 -1.0000e+00
       -2 -1    0    0    0  501 -0.0000000000e+00 -0.0000000000e+00 -1.0179467957e+02 1.0179467957e+02 0.0000000000e+00 0.0000e+00 1.0000e+00
     -556  1    1    2    0    0 +6.2761920336e+01 -1.8202770515e+02 +1.4557394507e+03 1.4819751997e+03 2.0000000000e+02 0.0000e+00 -1.0000e+00
      556  1    1    2    0    0 -6.2761920336e+01 +1.8202770515e+02 +1.2860984616e+02 3.0596345634e+02 2.0000000000e+02 0.0000e+00 1.0000e+00
<mgrwt>
<rscale>  0 0.82859033E+03</rscale>
<asrwt>0</asrwt>
<pdfrwt beam="1">  1        2 0.25940675E+00 0.82859033E+03</pdfrwt>
<pdfrwt beam="2">  1       -2 0.15660721E-01 0.82859033E+03</pdfrwt>
<totfact> 0.32869171E+02</totfact>
</mgrwt>
</event>
<event>
 4      1 +1.5204000e-02 7.59664900e+02 7.81860800e-03 9.62030900e-02
        2 -1    0    0  501    0 +0.0000000000e+00 +0.0000000000e+00 +9.5159480556e+02 9.5159480556e+02 0.0000000000e+00 0.0000e+00 -1.0000e+00
       -2 -1    0    0    0  501 -0.0000000000e+00 -0.0000000000e+00 -1.5161145731e+02 1.5161145731e+02 0.0000000000e+00 0.0000e+00 1.0000e+00
     -556  1    1    2    0    0 -1.6049971664e+02 +1.5700599587e+02 +6.2957110850e+01 3.0720455658e+02 2.0000000000e+02 0.0000e+00 1.0000e+00
      556  1    1    2    0    0 +1.6049971664e+02 -1.5700599587e+02 +7.3702623741e+02 7.9600170628e+02 2.0000000000e+02 0.0000e+00 -1.0000e+00
<mgrwt>
<rscale>  0 0.75966486E+03</rscale>
<asrwt>0</asrwt>
<pdfrwt beam="1">  1        2 0.14639920E+00 0.75966486E+03</pdfrwt>
<pdfrwt beam="2">  1       -2 0.23324840E-01 0.75966486E+03</pdfrwt>
<totfact> 0.44236144E+02</totfact>
</mgrwt>
</event>
<event>
 4      1 +1.5204000e-02 6.92773000e+02 7.81860800e-03 9.72967200e-02
       -2 -1    0    0    0  501 -0.0000000000e+00 +0.0000000000e+00 +1.2658905021e+02 1.2658905021e+02 0.0000000000e+00 0.0000e+00 1.0000e+00
        2 -1    0    0  501    0 +0.0000000000e+00 -0.0000000000e+00 -9.4781987308e+02 9.4781987308e+02 0.0000000000e+00 0.0000e+00 -1.0000e+00
     -556  1    1    2    0    0 -1.9416244312e+02 -1.2761701168e+02 -6.6068015176e+02 7.2834292673e+02 2.0000000000e+02 0.0000e+00 -1.0000e+00
      556  1    1    2    0    0 +1.9416244312e+02 +1.2761701168e+02 -1.6055067111e+02 3.4606599657e+02 2.0000000000e+02 0.0000e+00 1.0000e+00
<mgrwt>
<rscale>  0 0.69277303E+03</rscale>
<asrwt>0</asrwt>
<pdfrwt beam="2">  1        2 0.14581844E+00 0.69277303E+03</pdfrwt>
<pdfrwt beam="1">  1       -2 0.19475239E-01 0.69277303E+03</pdfrwt>
<totfact> 0.61309146E+02</totfact>
</mgrwt>
</event>
<event>
 4      1 +1.5204000e-02 4.21348100e+02 7.81860800e-03 1.03662800e-01
       -2 -1    0    0    0  501 -0.0000000000e+00 +0.0000000000e+00 +3.2351193333e+01 3.2351193333e+01 0.0000000000e+00 0.0000e+00 -1.0000e+00
        2 -1    0    0  501    0 +0.0000000000e+00 -0.0000000000e+00 -1.3719293625e+03 1.3719293625e+03 0.0000000000e+00 0.0000e+00 1.0000e+00
     -556  1    1    2    0    0 +4.2060664769e+01 +4.2941871156e+01 -5.7727995629e+02 6.1389351826e+02 2.0000000000e+02 0.0000e+00 -1.0000e+00
      556  1    1    2    0    0 -4.2060664769e+01 -4.2941871156e+01 -7.6229821290e+02 7.9038703761e+02 2.0000000000e+02 0.0000e+00 1.0000e+00
<mgrwt>
<rscale>  0 0.42134808E+03</rscale>
<asrwt>0</asrwt>
<pdfrwt beam="2">  1        2 0.21106602E+00 0.42134808E+03</pdfrwt>
<pdfrwt beam="1">  1       -2 0.49771076E-02 0.42134808E+03</pdfrwt>
<totfact> 0.31604068E+03</totfact>
</mgrwt>
</event>
<event>
 4      1 +1.5204000e-02 6.39478600e+02 7.81860800e-03 9.82672500e-02
        1 -1    0    0  501    0 +0.0000000000e+00 +0.0000000000e+00 +2.2463640376e+03 2.2463640376e+03 0.0000000000e+00 0.0000e+00 -1.0000e+00
       -1 -1    0    0    0  501 -0.0000000000e+00 -0.0000000000e+00 -4.5510537489e+01 4.5510537489e+01 0.0000000000e+00 0.0000e+00 1.0000e+00
     -556  1    1    2    0    0 -2.4924949596e+02 -5.7484501835e+00 +1.1314397895e+03 1.1757186539e+03 2.0000000000e+02 0.0000e+00 1.0000e+00
      556  1    1    2    0    0 +2.4924949596e+02 +5.7484501835e+00 +1.0694137107e+03 1.1161559213e+03 2.0000000000e+02 0.0000e+00 -1.0000e+00
<mgrwt>
<rscale>  0 0.63947865E+03</rscale>
<asrwt>0</asrwt>
<pdfrwt beam="1">  1        1 0.34559438E+00 0.63947865E+03</pdfrwt>
<pdfrwt beam="2">  1       -1 0.70016229E-02 0.63947865E+03</pdfrwt>
<totfact> 0.23389333E+02</totfact>
</mgrwt>
</event>
<event>
 4      1 +1.5204000e-02 1.04634900e+03 7.81860800e-03 9.25912200e-02
       -2 -1    0    0    0  501 -0.0000000000e+00 +0.0000000000e+00 +3.0429496825e+02 3.0429496825e+02 0.0000000000e+00 0.0000e+00 1.0000e+00
        2 -1    0    0  501    0 +0.0000000000e+00 -0.0000000000e+00 -8.9949433421e+02 8.9949433421e+02 0.0000000000e+00 0.0000e+00 -1.0000e+00
     -556  1    1    2    0    0 -4.7812219425e+02 -6.8114235388e+01 -2.7262586771e+02 5.8954664399e+02 2.0000000000e+02 0.0000e+00 -1.0000e+00
      556  1    1    2    0    0 +4.7812219425e+02 +6.8114235388e+01 -3.2257349826e+02 6.1424265846e+02 2.0000000000e+02 0.0000e+00 1.0000e+00
<mgrwt>
<rscale>  0 0.10463491E+04</rscale>
<asrwt>0</asrwt>
<pdfrwt beam="2">  1        2 0.13838374E+00 0.10463491E+04</pdfrwt>
<pdfrwt beam="1">  1       -2 0.46814611E-01 0.10463491E+04</pdfrwt>
<totfact> 0.12637131E+02</totfact>
</mgrwt>
</event>
<event>
 4      1 +1.5204000e-02 5.04677900e+02 7.81860800e-03 1.01256500e-01
       -2 -1    0    0    0  501 -0.0000000000e+00 +0.0000000000e+00 +1.9495933787e+01 1.9495933787e+01 0.0000000000e+00 0.0000e+00 1.0000e+00
        2 -1    0    0  501    0 +0.0000000000e+00 -0.0000000000e+00 -3.2660625839e+03 3.2660625839e+03 0.0000000000e+00 0.0000e+00 -1.0000e+00
     -556  1    1    2    0    0 -1.1332451567e+01 -1.4068210712e+02 -1.2243471783e+03 1.2485775478e+03 2.0000000000e+02 0.0000e+00 1.0000e+00
      556  1    1    2    0    0 +1.1332451567e+01 +1.4068210712e+02 -2.0222194718e+03 2.0369809699e+03 2.0000000000e+02 0.0000e+00 -1.0000e+00
<mgrwt>
<rscale>  0 0.50467788E+03</rscale>
<asrwt>0</asrwt>
<pdfrwt beam="2">  1        2 0.50247121E+00 0.50467788E+03</pdfrwt>
<pdfrwt beam="1">  1       -2 0.29993741E-02 0.50467788E+03</pdfrwt>
<totfact> 0.58310805E+02</totfact>
</mgrwt>
</event>
<event>
 4      1 +1.5204000e-02 6.66058900e+02 7.81860800e-03 9.77710400e-02
       -2 -1    0    0    0  501 -0.0000000000e+00 +0.0000000000e+00 +7.9964361744e+01 7.9964361744e+01 0.0000000000e+00 0.0000e+00 1.0000e+00
        2 -1    0    0  501    0 +0.0000000000e+00 -0.0000000000e+00 -1.3869756122e+03 1.3869756122e+03 0.0000000000e+00 0.0000e+00 -1.0000e+00
     -556  1    1    2    0    0 -5.4217748189e+01 -4.8593735527e+01 -8.9378324034e+01 2.3084496997e+02 2.0000000000e+02 0.0000e+00 1.0000e+00
      556  1    1    2    0    0 +5.4217748189e+01 +4.8593735527e+01 -1.2176329264e+03 1.2360950039e+03 2.0000000000e+02 0.0000e+00 -1.0000e+00
<mgrwt>
<rscale>  0 0.66605892E+03</rscale>
<asrwt>0</asrwt>
<pdfrwt beam="2">  1        2 0.21338087E+00 0.66605892E+03</pdfrwt>
<pdfrwt beam="1">  1       -2 0.12302209E-01 0.66605892E+03</pdfrwt>
<totfact> 0.72906433E+02</totfact>
</mgrwt>
</event>
<event>
 4      1 +1.5204000e-02 1.04189200e+03 7.81860800e-03 9.26375500e-02
       -1 -1    0    0    0  501 -0.0000000000e+00 +0.0000000000e+00 +3.9111793707e+02 3.9111793707e+02 0.0000000000e+00 0.0000e+00 1.0000e+00
        1 -1    0    0  501    0 +0.0000000000e+00 -0.0000000000e+00 -6.9386940383e+02 6.9386940383e+02 0.0000000000e+00 0.0000e+00 -1.0000e+00
     -556  1    1    2    0    0 +2.7980971592e+02 +4.9990996561e+01 +2.5273758951e+02 4.2973115550e+02 2.0000000000e+02 0.0000e+00 1.0000e+00
      556  1    1    2    0    0 -2.7980971592e+02 -4.9990996561e+01 -5.5548905627e+02 6.5525618540e+02 2.0000000000e+02 0.0000e+00 -1.0000e+00
<mgrwt>
<rscale>  0 0.10418921E+04</rscale>
<asrwt>0</asrwt>
<pdfrwt beam="2">  1        1 0.10674914E+00 0.10418921E+04</pdfrwt>
<pdfrwt beam="1">  1       -1 0.60171991E-01 0.10418921E+04</pdfrwt>
<totfact> 0.77347774E+01</totfact>
</mgrwt>
</event>
<event>
 4      1 +1.5204000e-02 5.23035500e+02 7.81860800e-03 1.00793500e-01
       -1 -1    0    0    0  501 -0.0000000000e+00 +0.0000000000e+00 +6.5545763492e+01 6.5545763492e+01 0.0000000000e+00 0.0000e+00 1.0000e+00
        1 -1    0    0  501    0 +0.0000000000e+00 -0.0000000000e+00 -1.0434165674e+03 1.0434165674e+03 0.0000000000e+00 0.0000e+00 -1.0000e+00
     -556  1    1    2    0    0 +5.9553974987e+01 +1.5545467715e+02 -4.3369898567e+02 5.0577430021e+02 2.0000000000e+02 0.0000e+00 1.0000e+00
      556  1    1    2    0    0 -5.9553974987e+01 -1.5545467715e+02 -5.4417181819e+02 6.0318803063e+02 2.0000000000e+02 0.0000e+00 -1.0000e+00
<mgrwt>
<rscale>  0 0.52303551E+03</rscale>
<asrwt>0</asrwt>
<pdfrwt beam="2">  1        1 0.16052561E+00 0.52303551E+03</pdfrwt>
<pdfrwt beam="1">  1       -1 0.10083965E-01 0.52303551E+03</pdfrwt>
<totfact> 0.88553000E+02</totfact>
</mgrwt>
</event>
<event>
 4      1 +1.5204000e-02 1.22229100e+03 7.81860800e-03 9.09356600e-02
        1 -1    0    0  501    0 +0.0000000000e+00 +0.0000000000e+00 +5.3220454046e+02 5.3220454046e+02 0.0000000000e+00 0.0000e+00 -1.0000e+00
       -1 -1    0    0    0  501 -0.0000000000e+00 -0.0000000000e+00 -7.0179598347e+02 7.0179598347e+02 0.0000000000e+00 0.0000e+00 1.0000e+00
     -556  1    1    2    0    0 -4.7581136540e+02 +8.5893833011e+01 +2.3402182467e+02 5.7318445584e+02 2.0000000000e+02 0.0000e+00 -1.0000e+00
      556  1    1    2    0    0 +4.7581136540e+02 -8.5893833011e+01 -4.0361326768e+02 6.6081606809e+02 2.0000000000e+02 0.0000e+00 1.0000e+00
<mgrwt>
<rscale>  0 0.12222913E+04</rscale>
<asrwt>0</asrwt>
<pdfrwt beam="1">  1        1 0.81877621E-01 0.12222913E+04</pdfrwt>
<pdfrwt beam="2">  1       -1 0.10796861E+00 0.12222913E+04</pdfrwt>
<totfact> 0.32036169E+01</totfact>
</mgrwt>
</event>
<event>
 4      1 +1.5204000e-02 6.47442600e+02 7.81860800e-03 9.81159000e-02
        2 -1    0    0  501    0 +0.0000000000e+00 +0.0000000000e+00 +1.7354244327e+03 1.7354244327e+03 0.0000000000e+00 0.0000e+00 -1.0000e+00
       -2 -1    0    0    0  501 -0.0000000000e+00 -0.0000000000e+00 -6.0386080301e+01 6.0386080301e+01 0.0000000000e+00 0.0000e+00 1.0000e+00
     -556  1    1    2    0    0 +1.4112284881e+01 +1.0038006635e+02 +1.8987297828e+02 2.9381467319e+02 2.0000000000e+02 0.0000e+00 1.0000e+00
      556  1    1    2    0    0 -1.4112284881e+01 -1.0038006635e+02 +1.4851653741e+03 1.5019958398e+03 2.0000000000e+02 0.0000e+00 -1.0000e+00
<mgrwt>
<rscale>  0 0.64744260E+03</rscale>
<asrwt>0</asrwt>
<pdfrwt beam="1">  1        2 0.26698834E+00 0.64744260E+03</pdfrwt>
<pdfrwt beam="2">  1       -2 0.92901675E-02 0.64744260E+03</pdfrwt>
<totfact> 0.74168507E+02</totfact>
</mgrwt>
</event>
<event>
 4      1 +1.5204000e-02 8.27946100e+02 7.81860800e-03 9.52042400e-02
        1 -1    0    0  501    0 +0.0000000000e+00 +0.0000000000e+00 +6.2673213619e+02 6.2673213619e+02 0.0000000000e+00 0.0000e+00 -1.0000e+00
       -1 -1    0    0    0  501 -0.0000000000e+00 -0.0000000000e+00 -2.7344011072e+02 2.7344011072e+02 0.0000000000e+00 0.0000e+00 1.0000e+00
     -556  1    1    2    0    0 -2.8415992859e+02 +2.2487415245e+02 +1.6833344288e+02 4.4682367602e+02 2.0000000000e+02 0.0000e+00 1.0000e+00
      556  1    1    2    0    0 +2.8415992859e+02 -2.2487415245e+02 +1.8495858259e+02 4.5334857089e+02 2.0000000000e+02 0.0000e+00 -1.0000e+00
<mgrwt>
<rscale>  0 0.82794614E+03</rscale>
<asrwt>0</asrwt>
<pdfrwt beam="1">  1        1 0.96420328E-01 0.82794614E+03</pdfrwt>
<pdfrwt beam="2">  1       -1 0.42067709E-01 0.82794614E+03</pdfrwt>
<totfact> 0.18017821E+02</totfact>
</mgrwt>
</event>
<event>
 4      1 +1.5204000e-02 6.98817700e+02 7.81860800e-03 9.71925600e-02
       -2 -1    0    0    0  501 -0.0000000000e+00 +0.0000000000e+00 +4.3028241320e+02 4.3028241320e+02 0.0000000000e+00 0.0000e+00 1.0000e+00
        2 -1    0    0  501    0 +0.0000000000e+00 -0.0000000000e+00 -2.8373587278e+02 2.8373587278e+02 0.0000000000e+00 0.0000e+00 -1.0000e+00
     -556  1    1    2    0    0 -6.2091499560e+01 +4.9467538611e+01 +3.5455054792e+02 4.1473905377e+02 2.0000000000e+02 0.0000e+00 1.0000e+00
      556  1    1    2    0    0 +6.2091499560e+01 -4.9467538611e+01 -2.0800400751e+02 2.9927923221e+02 2.0000000000e+02 0.0000e+00 -1.0000e+00
<mgrwt>
<rscale>  0 0.69881773E+03</rscale>
<asrwt>0</asrwt>
<pdfrwt beam="2">  1        2 0.43651673E-01 0.69881773E+03</pdfrwt>
<pdfrwt beam="1">  1       -2 0.66197294E-01 0.69881773E+03</pdfrwt>
<totfact> 0.24764028E+02</totfact>
</mgrwt>
</event>
<event>
 4      1 +1.5204000e-02 4.97660900e+02 7.81860800e-03 1.01439100e-01
        1 -1    0    0  501    0 +0.0000000000e+00 +0.0000000000e+00 +4.0172832694e+02 4.0172832694e+02 0.0000000000e+00 0.0000e+00 -1.0000e+00
       -1 -1    0    0    0  501 -0.0000000000e+00 -0.0000000000e+00 -1.5412555362e+02 1.5412555362e+02 0.0000000000e+00 0.0000e+00 1.0000e+00
     -556  1    1    2    0    0 -4.9134120969e+01 +1.1929293978e+02 +4.2705337473e+01 2.4180304624e+02 2.0000000000e+02 0.0000e+00 1.0000e+00
      556  1    1    2    0    0 +4.9134120969e+01 -1.1929293978e+02 +2.0489743585e+02 3.1405083433e+02 2.0000000000e+02 0.0000e+00 -1.0000e+00
<mgrwt>
<rscale>  0 0.49766093E+03</rscale>
<asrwt>0</asrwt>
<pdfrwt beam="1">  1        1 0.61804358E-01 0.49766093E+03</pdfrwt>
<pdfrwt beam="2">  1       -1 0.23711624E-01 0.49766093E+03</pdfrwt>
<totfact> 0.91836504E+02</totfact>
</mgrwt>
</event>
<event>
 4      1 +1.5204000e-02 8.40553000e+02 7.81860800e-03 9.50310500e-02
        2 -1    0    0  501    0 +0.0000000000e+00 +0.0000000000e+00 +2.7768082040e+03 2.7768082040e+03 0.0000000000e+00 0.0000e+00 -1.0000e+00
       -2 -1    0    0    0  501 -0.0000000000e+00 -0.0000000000e+00 -6.3609849875e+01 6.3609849875e+01 0.0000000000e+00 0.0000e+00 1.0000e+00
     -556  1    1    2    0    0 +4.1373188515e+01 -8.5073926398e+01 +1.4910860792e+02 2.6680084452e+02 2.0000000000e+02 0.0000e+00 1.0000e+00
      556  1    1    2    0    0 -4.1373188515e+01 +8.5073926398e+01 +2.5640897462e+03 2.5736172093e+03 2.0000000000e+02 0.0000e+00 -1.0000e+00
<mgrwt>
<rscale>  0 0.84055304E+03</rscale>
<asrwt>0</asrwt>
<pdfrwt beam="1">  1        2 0.42720117E+00 0.84055304E+03</pdfrwt>
<pdfrwt beam="2">  1       -2 0.97861329E-02 0.84055304E+03</pdfrwt>
<totfact> 0.17611598E+02</totfact>
</mgrwt>
</event>
<event>
 4      1 +1.5204000e-02 7.09900000e+02 7.81860800e-03 9.70045000e-02
       -1 -1    0    0    0  501 -0.0000000000e+00 +0.0000000000e+00 +1.1682983451e+02 1.1682983451e+02 0.0000000000e+00 0.0000e+00 1.0000e+00
        1 -1    0    0  501    0 +0.0000000000e+00 -0.0000000000e+00 -1.0784018672e+03 1.0784018672e+03 0.0000000000e+00 0.0000e+00 -1.0000e+00
     -556  1    1    2    0    0 -9.3071975999e+01 +1.1482413252e+02 -5.4375428061e+01 2.5456563260e+02 2.0000000000e+02 0.0000e+00 1.0000e+00
      556  1    1    2    0    0 +9.3071975999e+01 -1.1482413252e+02 -9.0719660462e+02 9.4066606911e+02 2.0000000000e+02 0.0000e+00 -1.0000e+00
<mgrwt>
<rscale>  0 0.70990003E+03</rscale>
<asrwt>0</asrwt>
<pdfrwt beam="2">  1        1 0.16590798E+00 0.70990003E+03</pdfrwt>
<pdfrwt beam="1">  1       -1 0.17973821E-01 0.70990003E+03</pdfrwt>
<totfact> 0.32598163E+02</totfact>
</mgrwt>
</event>
<event>
 4      1 +1.5204000e-02 5.65664700e+02 7.81860800e-03 9.97931800e-02
       -1 -1    0    0    0  501 -0.0000000000e+00 +0.0000000000e+00 +5.0209939157e+01 5.0209939157e+01 0.0000000000e+00 0.0000e+00 1.0000e+00
        1 -1    0    0  501    0 +0.0000000000e+00 -0.0000000000e+00 -1.5931932307e+03 1.5931932307e+03 0.0000000000e+00 0.0000e+00 -1.0000e+00
     -556  1    1    2    0    0 +1.7576936512e+02 +9.5215234000e+01 -7.8826299613e+02 8.3744812470e+02 2.0000000000e+02 0.0000e+00 1.0000e+00
      556  1    1    2    0    0 -1.7576936512e+02 -9.5215234000e+01 -7.5472029543e+02 8.0595504517e+02 2.0000000000e+02 0.0000e+00 -1.0000e+00
<mgrwt>
<rscale>  0 0.56566469E+03</rscale>
<asrwt>0</asrwt>
<pdfrwt beam="2">  1        1 0.24510667E+00 0.56566469E+03</pdfrwt>
<pdfrwt beam="1">  1       -1 0.77246054E-02 0.56566469E+03</pdfrwt>
<totfact> 0.55067071E+02</totfact>
</mgrwt>
</event>
<event>
 4      1 +1.5204000e-02 7.04974600e+02 7.81860800e-03 9.70876300e-02
        1 -1    0    0  501    0 +0.0000000000e+00 +0.0000000000e+00 +1.8956677891e+03 1.8956677891e+03 0.0000000000e+00 0.0000e+00 1.0000e+00
       -1 -1    0    0    0  501 -0.0000000000e+00 -0.0000000000e+00 -6.5542756134e+01 6.5542756134e+01 0.0000000000e+00 0.0000e+00 -1.0000e+00
     -556  1    1    2    0    0 +1.5597469472e+02 +1.4681114725e+02 +1.4599692452e+03 1.4890909358e+03 2.0000000000e+02 0.0000e+00 1.0000e+00
      556  1    1    2    0    0 -1.5597469472e+02 -1.4681114725e+02 +3.7015578785e+02 4.7211960945e+02 2.0000000000e+02 0.0000e+00 -1.0000e+00
<mgrwt>
<rscale>  0 0.70497459E+03</rscale>
<asrwt>0</asrwt>
<pdfrwt beam="1">  1        1 0.29164116E+00 0.70497459E+03</pdfrwt>
<pdfrwt beam="2">  1       -1 0.10083502E-01 0.70497459E+03</pdfrwt>
<totfact> 0.22509927E+02</totfact>
</mgrwt>
</event>
<event>
 4      1 +1.5204000e-02 1.16802300e+03 7.81860800e-03 9.14131600e-02
        2 -1    0    0  501    0 +0.0000000000e+00 +0.0000000000e+00 +2.5804845778e+03 2.5804845778e+03 0.0000000000e+00 0.0000e+00 -1.0000e+00
       -2 -1    0    0    0  501 -0.0000000000e+00 -0.0000000000e+00 -1.3217263268e+02 1.3217263268e+02 0.0000000000e+00 0.0000e+00 1.0000e+00
     -556  1    1    2    0    0 -5.3399584968e+02 -9.5843184768e+01 +1.0336036819e+03 1.1843454119e+03 2.0000000000e+02 0.0000e+00 1.0000e+00
      556  1    1    2    0    0 +5.3399584968e+02 +9.5843184768e+01 +1.4147082632e+03 1.5283117986e+03 2.0000000000e+02 0.0000e+00 -1.0000e+00
<mgrwt>
<rscale>  0 0.11680230E+04</rscale>
<asrwt>0</asrwt>
<pdfrwt beam="1">  1        2 0.39699759E+00 0.11680230E+04</pdfrwt>
<pdfrwt beam="2">  1       -2 0.20334253E-01 0.11680230E+04</pdfrwt>
<totfact> 0.64669546E+01</totfact>
</mgrwt>
</event>
<event>
 4      1 +1.5204000e-02 6.70132400e+02 7.81860800e-03 9.76971900e-02
       -1 -1    0    0    0  501 -0.0000000000e+00 +0.0000000000e+00 +7.2668364595e+01 7.2668364595e+01 0.0000000000e+00 0.0000e+00 1.0000e+00
        1 -1    0    0  501    0 +0.0000000000e+00 -0.0000000000e+00 -1.5449549045e+03 1.5449549045e+03 0.0000000000e+00 0.0000e+00 -1.0000e+00
     -556  1    1    2    0    0 +1.1423648551e+02 +2.3163357737e+02 -9.1622075825e+02 9.7270990877e+02 2.0000000000e+02 0.0000e+00 1.0000e+00
      556  1    1    2    0    0 -1.1423648551e+02 -2.3163357737e+02 -5.5606578163e+02 6.4491336029e+02 2.0000000000e+02 0.0000e+00 -1.0000e+00
<mgrwt>
<rscale>  0 0.67013236E+03</rscale>
<asrwt>0</asrwt>
<pdfrwt beam="2">  1        1 0.23768536E+00 0.67013236E+03</pdfrwt>
<pdfrwt beam="1">  1       -1 0.11179749E-01 0.67013236E+03</pdfrwt>
<totfact> 0.32956236E+02</totfact>
</mgrwt>
</event>
<event>
 4      1 +1.5204000e-02 1.17266600e+03 7.81860800e-03 9.13712400e-02
       -2 -1    0    0    0  501 -0.0000000000e+00 +0.0000000000e+00 +3.7038916360e+02 3.7038916360e+02 0.0000000000e+00 0.0000e+00 1.0000e+00
        2 -1    0    0  501    0 +0.0000000000e+00 -0.0000000000e+00 -9.2817642961e+02 9.2817642961e+02 0.0000000000e+00 0.0000e+00 -1.0000e+00
     -556  1    1    2    0    0 -1.5092110402e+02 +2.9483382412e+02 -7.6673934100e+02 8.5883256838e+02 2.0000000000e+02 0.0000e+00 -1.0000e+00
      556  1    1    2    0    0 +1.5092110402e+02 -2.9483382412e+02 +2.0895207499e+02 4.3973302483e+02 2.0000000000e+02 0.0000e+00 1.0000e+00
<mgrwt>
<rscale>  0 0.11726662E+04</rscale>
<asrwt>0</asrwt>
<pdfrwt beam="2">  1        2 0.14279637E+00 0.11726662E+04</pdfrwt>
<pdfrwt beam="1">  1       -2 0.56982948E-01 0.11726662E+04</pdfrwt>
<totfact> 0.80119611E+01</totfact>
</mgrwt>
</event>
<event>
 4      1 +1.5204000e-02 1.23597300e+03 7.81860800e-03 9.08194000e-02
       -2 -1    0    0    0  501 -0.0000000000e+00 +0.0000000000e+00 +3.2143037270e+02 3.2143037270e+02 0.0000000000e+00 0.0000e+00 1.0000e+00
        2 -1    0    0  501    0 +0.0000000000e+00 -0.0000000000e+00 -1.1881488045e+03 1.1881488045e+03 0.0000000000e+00 0.0000e+00 -1.0000e+00
     -556  1    1    2    0    0 +1.4325976484e+02 -5.2642620568e+02 -1.7640909820e+02 6.0726277687e+02 2.0000000000e+02 0.0000e+00 1.0000e+00
      556  1    1    2    0    0 -1.4325976484e+02 +5.2642620568e+02 -6.9030933364e+02 9.0231640035e+02 2.0000000000e+02 0.0000e+00 -1.0000e+00
<mgrwt>
<rscale>  0 0.12359727E+04</rscale>
<asrwt>0</asrwt>
<pdfrwt beam="2">  1        2 0.18279212E+00 0.12359727E+04</pdfrwt>
<pdfrwt beam="1">  1       -2 0.49450827E-01 0.12359727E+04</pdfrwt>
<totfact> 0.73338697E+01</totfact>
</mgrwt>
</event>
<event>
 4      1 +1.5204000e-02 4.52001100e+02 7.81860800e-03 1.02712700e-01
       -3 -1    0    0    0  501 -0.0000000000e+00 +0.0000000000e+00 +2.7669809525e+02 2.7669809525e+02 0.0000000000e+00 0.0000e+00 1.0000e+00
        3 -1    0    0  501    0 +0.0000000000e+00 -0.0000000000e+00 -1.8459200352e+02 1.8459200352e+02 0.0000000000e+00 0.0000e+00 -1.0000e+00
     -556  1    1    2    0    0 +1.8216602523e+01 +9.2266552130e+01 -2.1542821433e+00 2.2101946109e+02 2.0000000000e+02 0.0000e+00 -1.0000e+00
      556  1    1    2    0    0 -1.8216602523e+01 -9.2266552130e+01 +9.4260373874e+01 2.4027063768e+02 2.0000000000e+02 0.0000e+00 1.0000e+00
<mgrwt>
<rscale>  0 0.45200113E+03</rscale>
<asrwt>0</asrwt>
<pdfrwt beam="2">  1        3 0.28398770E-01 0.45200113E+03</pdfrwt>
<pdfrwt beam="1">  1       -3 0.42568938E-01 0.45200113E+03</pdfrwt>
<totfact> 0.17085936E+02</totfact>
</mgrwt>
</event>
<event>
 4      1 +1.5204000e-02 7.45580800e+02 7.81860800e-03 9.64230900e-02
       -2 -1    0    0    0  501 -0.0000000000e+00 +0.0000000000e+00 +6.8566070835e+01 6.8566070835e+01 0.0000000000e+00 0.0000e+00 -1.0000e+00
        2 -1    0    0  501    0 +0.0000000000e+00 -0.0000000000e+00 -2.0268430532e+03 2.0268430532e+03 0.0000000000e+00 0.0000e+00 1.0000e+00
     -556  1    1    2    0    0 +9.6746899384e+01 +1.1626976773e+02 -2.0387475008e+02 3.2317725036e+02 2.0000000000e+02 0.0000e+00 -1.0000e+00
      556  1    1    2    0    0 -9.6746899384e+01 -1.1626976773e+02 -1.7544022323e+03 1.7722318737e+03 2.0000000000e+02 0.0000e+00 -1.0000e+00
<mgrwt>
<rscale>  0 0.74558075E+03</rscale>
<asrwt>0</asrwt>
<pdfrwt beam="2">  1        2 0.31182201E+00 0.74558075E+03</pdfrwt>
<pdfrwt beam="1">  1       -2 0.10548626E-01 0.74558075E+03</pdfrwt>
<totfact> 0.41609182E+02</totfact>
</mgrwt>
</event>
<event>
 4      1 +1.5204000e-02 5.25394000e+02 7.81860800e-03 1.00735500e-01
        2 -1    0    0  501    0 +0.0000000000e+00 +0.0000000000e+00 +6.9208408927e+02 6.9208408927e+02 0.0000000000e+00 0.0000e+00 -1.0000e+00
       -2 -1    0    0    0  501 -0.0000000000e+00 -0.0000000000e+00 -9.9712918908e+01 9.9712918908e+01 0.0000000000e+00 0.0000e+00 1.0000e+00
     -556  1    1    2    0    0 +1.4555980220e+02 -7.5385519092e+01 +2.2648387049e+02 3.4375220159e+02 2.0000000000e+02 0.0000e+00 1.0000e+00
      556  1    1    2    0    0 -1.4555980220e+02 +7.5385519092e+01 +3.6588729987e+02 4.4804480659e+02 2.0000000000e+02 0.0000e+00 -1.0000e+00
<mgrwt>
<rscale>  0 0.52539404E+03</rscale>
<asrwt>0</asrwt>
<pdfrwt beam="1">  1        2 0.10647447E+00 0.52539404E+03</pdfrwt>
<pdfrwt beam="2">  1       -2 0.15340450E-01 0.52539404E+03</pdfrwt>
<totfact> 0.14049164E+03</totfact>
</mgrwt>
</event>
<event>
 4      1 +1.5204000e-02 5.41310400e+02 7.81860800e-03 1.00352500e-01
        2 -1    0    0  501    0 +0.0000000000e+00 +0.0000000000e+00 +1.2008514476e+03 1.2008514476e+03 0.0000000000e+00 0.0000e+00 -1.0000e+00
       -2 -1    0    0    0  501 -0.0000000000e+00 -0.0000000000e+00 -6.1001917685e+01 6.1001917685e+01 0.0000000000e+00 0.0000e+00 1.0000e+00
     -556  1    1    2    0    0 +1.1112308257e+02 +5.5761847314e+01 +2.5894650618e+02 3.5001573701e+02 2.0000000000e+02 0.0000e+00 1.0000e+00
      556  1    1    2    0    0 -1.1112308257e+02 -5.5761847314e+01 +8.8090302369e+02 9.1183762822e+02 2.0000000000e+02 0.0000e+00 -1.0000e+00
<mgrwt>
<rscale>  0 0.54131041E+03</rscale>
<asrwt>0</asrwt>
<pdfrwt beam="1">  1        2 0.18474636E+00 0.54131041E+03</pdfrwt>
<pdfrwt beam="2">  1       -2 0.93849113E-02 0.54131041E+03</pdfrwt>
<totfact> 0.14566399E+03</totfact>
</mgrwt>
</event>
<event>
 4      1 +1.5204000e-02 8.00432700e+02 7.81860800e-03 9.55939100e-02
       -2 -1    0    0    0  501 -0.0000000000e+00 +0.0000000000e+00 +7.7484246354e+01 7.7484246354e+01 0.0000000000e+00 0.0000e+00 1.0000e+00
        2 -1    0    0  501    0 +0.0000000000e+00 -0.0000000000e+00 -2.0671701605e+03 2.0671701605e+03 0.0000000000e+00 0.0000e+00 -1.0000e+00
     -556  1    1    2    0    0 -3.1466907932e+01 +1.4459684858e+02 -1.8347928561e+03 1.8515839813e+03 2.0000000000e+02 0.0000e+00 -1.0000e+00
      556  1    1    2    0    0 +3.1466907932e+01 -1.4459684858e+02 -1.5489305802e+02 2.9307042556e+02 2.0000000000e+02 0.0000e+00 1.0000e+00
<mgrwt>
<rscale>  0 0.80043269E+03</rscale>
<asrwt>0</asrwt>
<pdfrwt beam="2">  1        2 0.31802621E+00 0.80043269E+03</pdfrwt>
<pdfrwt beam="1">  1       -2 0.11920652E-01 0.80043269E+03</pdfrwt>
<totfact> 0.32210744E+02</totfact>
</mgrwt>
</event>
<event>
 4      1 +1.5204000e-02 4.49813100e+02 7.81860800e-03 1.02777800e-01
       -1 -1    0    0    0  501 -0.0000000000e+00 +0.0000000000e+00 +1.6662260033e+01 1.6662260033e+01 0.0000000000e+00 0.0000e+00 -1.0000e+00
        1 -1    0    0  501    0 +0.0000000000e+00 -0.0000000000e+00 -3.0357802958e+03 3.0357802958e+03 0.0000000000e+00 0.0000e+00 1.0000e+00
     -556  1    1    2    0    0 +3.4900544072e+01 +3.5500610653e+01 -2.1204752894e+03 2.1304679754e+03 2.0000000000e+02 0.0000e+00 1.0000e+00
      556  1    1    2    0    0 -3.4900544072e+01 -3.5500610653e+01 -8.9864274642e+02 9.2197458047e+02 2.0000000000e+02 0.0000e+00 -1.0000e+00
<mgrwt>
<rscale>  0 0.44981312E+03</rscale>
<asrwt>0</asrwt>
<pdfrwt beam="2">  1        1 0.46704264E+00 0.44981312E+03</pdfrwt>
<pdfrwt beam="1">  1       -1 0.25634273E-02 0.44981312E+03</pdfrwt>
<totfact> 0.31532490E+02</totfact>
</mgrwt>
</event>
<event>
 4      1 +1.5204000e-02 1.15313000e+03 7.81860800e-03 9.15490100e-02
        2 -1    0    0  501    0 +0.0000000000e+00 +0.0000000000e+00 +2.6886890398e+03 2.6886890398e+03 0.0000000000e+00 0.0000e+00 -1.0000e+00
       -2 -1    0    0    0  501 -0.0000000000e+00 -0.0000000000e+00 -1.2363919148e+02 1.2363919148e+02 0.0000000000e+00 0.0000e+00 1.0000e+00
     -556  1    1    2    0    0 +3.0656783083e+02 -3.5148098914e+02 +1.9500105876e+03 2.0149600523e+03 2.0000000000e+02 0.0000e+00 -1.0000e+00
      556  1    1    2    0    0 -3.0656783083e+02 +3.5148098914e+02 +6.1503926074e+02 7.9736817900e+02 2.0000000000e+02 0.0000e+00 1.0000e+00
<mgrwt>
<rscale>  0 0.11531302E+04</rscale>
<asrwt>0</asrwt>
<pdfrwt beam="1">  1        2 0.41364442E+00 0.11531302E+04</pdfrwt>
<pdfrwt beam="2">  1       -2 0.19021416E-01 0.11531302E+04</pdfrwt>
<totfact> 0.62952528E+01</totfact>
</mgrwt>
</event>
<event>
 4      1 +1.5204000e-02 5.18590600e+02 7.81860800e-03 1.00903700e-01
       -2 -1    0    0    0  501 -0.0000000000e+00 +0.0000000000e+00 +5.7978464945e+01 5.7978464945e+01 0.0000000000e+00 0.0000e+00 1.0000e+00
        2 -1    0    0  501    0 +0.0000000000e+00 -0.0000000000e+00 -1.1596382624e+03 1.1596382624e+03 0.0000000000e+00 0.0000e+00 -1.0000e+00
     -556  1    1    2    0    0 -1.2729581959e+01 -1.6008451786e+02 -4.6157900365e+02 5.2805707242e+02 2.0000000000e+02 0.0000e+00 1.0000e+00
      556  1    1    2    0    0 +1.2729581959e+01 +1.6008451786e+02 -6.4008079382e+02 6.8955965495e+02 2.0000000000e+02 0.0000e+00 -1.0000e+00
<mgrwt>
<rscale>  0 0.51859058E+03</rscale>
<asrwt>0</asrwt>
<pdfrwt beam="2">  1        2 0.17840587E+00 0.51859058E+03</pdfrwt>
<pdfrwt beam="1">  1       -2 0.89197645E-02 0.51859058E+03</pdfrwt>
<totfact> 0.16721537E+03</totfact>
</mgrwt>
</event>
<event>
 4      1 +1.5204000e-02 4.97669500e+02 7.81860800e-03 1.01438900e-01
       -2 -1    0    0    0  501 -0.0000000000e+00 +0.0000000000e+00 +9.1474540802e+01 9.1474540802e+01 0.0000000000e+00 0.0000e+00 -1.0000e+00
        2 -1    0    0  501    0 +0.0000000000e+00 -0.0000000000e+00 -6.7689579831e+02 6.7689579831e+02 0.0000000000e+00 0.0000e+00 1.0000e+00
     -556  1    1    2    0    0 -5.9140443284e+01 +5.3301832648e+01 -9.9996276285e+01 2.3735613046e+02 2.0000000000e+02 0.0000e+00 -1.0000e+00
      556  1    1    2    0    0 +5.9140443284e+01 -5.3301832648e+01 -4.8542498122e+02 5.3101420865e+02 2.0000000000e+02 0.0000e+00 1.0000e+00
<mgrwt>
<rscale>  0 0.49766950E+03</rscale>
<asrwt>0</asrwt>
<pdfrwt beam="2">  1        2 0.10413782E+00 0.49766950E+03</pdfrwt>
<pdfrwt beam="1">  1       -2 0.14073006E-01 0.49766950E+03</pdfrwt>
<totfact> 0.16685988E+03</totfact>
</mgrwt>
</event>
<event>
 4      1 +1.5204000e-02 1.12421900e+03 7.81860800e-03 9.18190300e-02
        2 -1    0    0  501    0 +0.0000000000e+00 +0.0000000000e+00 +2.8084475042e+03 2.8084475042e+03 0.0000000000e+00 0.0000e+00 -1.0000e+00
       -2 -1    0    0    0  501 -0.0000000000e+00 -0.0000000000e+00 -1.1250587579e+02 1.1250587579e+02 0.0000000000e+00 0.0000e+00 1.0000e+00
     -556  1    1    2    0    0 +3.2568560236e+02 -3.7537412616e+02 +9.0558827288e+02 1.0521724983e+03 2.0000000000e+02 0.0000e+00 1.0000e+00
      556  1    1    2    0    0 -3.2568560236e+02 +3.7537412616e+02 +1.7903533555e+03 1.8687808817e+03 2.0000000000e+02 0.0000e+00 -1.0000e+00
<mgrwt>
<rscale>  0 0.11242186E+04</rscale>
<asrwt>0</asrwt>
<pdfrwt beam="1">  1        2 0.43206879E+00 0.11242186E+04</pdfrwt>
<pdfrwt beam="2">  1       -2 0.17308598E-01 0.11242186E+04</pdfrwt>
<totfact> 0.63146349E+01</totfact>
</mgrwt>
</event>
<event>
 4      1 +1.5204000e-02 5.20123600e+02 7.81860800e-03 1.00865600e-01
        1 -1    0    0  501    0 +0.0000000000e+00 +0.0000000000e+00 +8.4198501601e+02 8.4198501601e+02 0.0000000000e+00 0.0000e+00 -1.0000e+00
       -1 -1    0    0    0  501 -0.0000000000e+00 -0.0000000000e+00 -8.0324629799e+01 8.0324629799e+01 0.0000000000e+00 0.0000e+00 1.0000e+00
     -556  1    1    2    0    0 -1.4744878723e+01 -1.4747609807e+02 +5.1430221509e+02 5.7137849050e+02 2.0000000000e+02 0.0000e+00 -1.0000e+00
      556  1    1    2    0    0 +1.4744878723e+01 +1.4747609807e+02 +2.4735817112e+02 3.5093115532e+02 2.0000000000e+02 0.0000e+00 1.0000e+00
<mgrwt>
<rscale>  0 0.52012358E+03</rscale>
<asrwt>0</asrwt>
<pdfrwt beam="1">  1        1 0.12953615E+00 0.52012358E+03</pdfrwt>
<pdfrwt beam="2">  1       -1 0.12357636E-01 0.52012358E+03</pdfrwt>
<totfact> 0.92557465E+02</totfact>
</mgrwt>
</event>
<event>
 4      1 +1.5204000e-02 4.99923200e+02 7.81860800e-03 1.01379900e-01
        1 -1    0    0  501    0 +0.0000000000e+00 +0.0000000000e+00 +8.3880574227e+02 8.3880574227e+02 0.0000000000e+00 0.0000e+00 -1.0000e+00
       -1 -1    0    0    0  501 -0.0000000000e+00 -0.0000000000e+00 -7.4487798837e+01 7.4487798837e+01 0.0000000000e+00 0.0000e+00 1.0000e+00
     -556  1    1    2    0    0 -1.3927079556e+02 -3.8392165893e+01 +3.0884531903e+02 3.9529197308e+02 2.0000000000e+02 0.0000e+00 1.0000e+00
      556  1    1    2    0    0 +1.3927079556e+02 +3.8392165893e+01 +4.5547262441e+02 5.1800156803e+02 2.0000000000e+02 0.0000e+00 -1.0000e+00
<mgrwt>
<rscale>  0 0.49992317E+03</rscale>
<asrwt>0</asrwt>
<pdfrwt beam="1">  1        1 0.12904703E+00 0.49992317E+03</pdfrwt>
<pdfrwt beam="2">  1       -1 0.11459662E-01 0.49992317E+03</pdfrwt>
<totfact> 0.10503275E+03</totfact>
</mgrwt>
</event>
<event>
 4      1 +1.5204000e-02 5.74002900e+02 7.81860800e-03 9.96086000e-02
        1 -1    0    0  501    0 +0.0000000000e+00 +0.0000000000e+00 +9.8207082300e+02 9.8207082300e+02 0.0000000000e+00 0.0000e+00 -1.0000e+00
       -1 -1    0    0    0  501 -0.0000000000e+00 -0.0000000000e+00 -8.3873611142e+01 8.3873611142e+01 0.0000000000e+00 0.0000e+00 1.0000e+00
     -556  1    1    2    0    0 +3.2676398334e+01 -1.8679750463e+02 +3.0043389464e+02 4.0770280817e+02 2.0000000000e+02 0.0000e+00 1.0000e+00
      556  1    1    2    0    0 -3.2676398334e+01 +1.8679750463e+02 +5.9776331722e+02 6.5824162597e+02 2.0000000000e+02 0.0000e+00 -1.0000e+00
<mgrwt>
<rscale>  0 0.57400288E+03</rscale>
<asrwt>0</asrwt>
<pdfrwt beam="1">  1        1 0.15108781E+00 0.57400288E+03</pdfrwt>
<pdfrwt beam="2">  1       -1 0.12903633E-01 0.57400288E+03</pdfrwt>
<totfact> 0.66570948E+02</totfact>
</mgrwt>
</event>
<event>
 4      1 +1.5204000e-02 1.05750500e+03 7.81860800e-03 9.24762900e-02
       -3 -1    0    0    0  501 -0.0000000000e+00 +0.0000000000e+00 +3.2153277824e+02 3.2153277824e+02 0.0000000000e+00 0.0000e+00 1.0000e+00
        3 -1    0    0  501    0 +0.0000000000e+00 -0.0000000000e+00 -8.6952082658e+02 8.6952082658e+02 0.0000000000e+00 0.0000e+00 -1.0000e+00
     -556  1    1    2    0    0 +3.6020378314e+02 +1.1130051513e+02 -6.2557729113e+02 7.5728562461e+02 2.0000000000e+02 0.0000e+00 -1.0000e+00
      556  1    1    2    0    0 -3.6020378314e+02 -1.1130051513e+02 +7.7589242794e+01 4.3376798021e+02 2.0000000000e+02 0.0000e+00 1.0000e+00
<mgrwt>
<rscale>  0 0.10575055E+04</rscale>
<asrwt>0</asrwt>
<pdfrwt beam="2">  1        3 0.13377243E+00 0.10575055E+04</pdfrwt>
<pdfrwt beam="1">  1       -3 0.49466582E-01 0.10575055E+04</pdfrwt>
<totfact> 0.45833393E+00</totfact>
</mgrwt>
</event>
<event>
 4      1 +1.5204000e-02 6.52423300e+02 7.81860800e-03 9.80224300e-02
        2 -1    0    0  501    0 +0.0000000000e+00 +0.0000000000e+00 +1.2520415084e+03 1.2520415084e+03 0.0000000000e+00 0.0000e+00 -1.0000e+00
       -2 -1    0    0    0  501 -0.0000000000e+00 -0.0000000000e+00 -8.4992423735e+01 8.4992423735e+01 0.0000000000e+00 0.0000e+00 1.0000e+00
     -556  1    1    2    0    0 -2.2952773614e+02 +8.6908976106e+01 +4.2244771359e+02 5.2791876506e+02 2.0000000000e+02 0.0000e+00 1.0000e+00
      556  1    1    2    0    0 +2.2952773614e+02 -8.6908976106e+01 +7.4460137108e+02 8.0911516708e+02 2.0000000000e+02 0.0000e+00 -1.0000e+00
<mgrwt>
<rscale>  0 0.65242331E+03</rscale>
<asrwt>0</asrwt>
<pdfrwt beam="1">  1        2 0.19262176E+00 0.65242331E+03</pdfrwt>
<pdfrwt beam="2">  1       -2 0.13075758E-01 0.65242331E+03</pdfrwt>
<totfact> 0.78751667E+02</totfact>
</mgrwt>
</event>
<event>
 4      1 +1.5204000e-02 4.10973600e+02 7.81860800e-03 1.04004500e-01
       -3 -1    0    0    0  501 -0.0000000000e+00 +0.0000000000e+00 +8.9017706409e+01 8.9017706409e+01 0.0000000000e+00 0.0000e+00 1.0000e+00
        3 -1    0    0  501    0 +0.0000000000e+00 -0.0000000000e+00 -4.7434194305e+02 4.7434194305e+02 0.0000000000e+00 0.0000e+00 -1.0000e+00
     -556  1    1    2    0    0 +1.8602897310e+00 -3.8196409895e+01 -1.5481221590e+02 2.5579141619e+02 2.0000000000e+02 0.0000e+00 1.0000e+00
      556  1    1    2    0    0 -1.8602897310e+00 +3.8196409895e+01 -2.3051202074e+02 3.0756823327e+02 2.0000000000e+02 0.0000e+00 -1.0000e+00
<mgrwt>
<rscale>  0 0.41097363E+03</rscale>
<asrwt>0</asrwt>
<pdfrwt beam="2">  1        3 0.72975684E-01 0.41097363E+03</pdfrwt>
<pdfrwt beam="1">  1       -3 0.13695032E-01 0.41097363E+03</pdfrwt>
<totfact> 0.20584221E+02</totfact>
</mgrwt>
</event>
<event>
 4      1 +1.5204000e-02 8.10430500e+02 7.81860800e-03 9.54504100e-02
        1 -1    0    0  501    0 +0.0000000000e+00 +0.0000000000e+00 +7.3904438194e+02 7.3904438194e+02 0.0000000000e+00 0.0000e+00 -1.0000e+00
       -1 -1    0    0    0  501 -0.0000000000e+00 -0.0000000000e+00 -2.2217798429e+02 2.2217798429e+02 0.0000000000e+00 0.0000e+00 1.0000e+00
     -556  1    1    2    0    0 +1.3514779399e+02 +1.1464079919e+02 +6.1972928441e+02 6.7488652751e+02 2.0000000000e+02 0.0000e+00 -1.0000e+00
      556  1    1    2    0    0 -1.3514779399e+02 -1.1464079919e+02 -1.0286288676e+02 2.8633583872e+02 2.0000000000e+02 0.0000e+00 1.0000e+00
<mgrwt>
<rscale>  0 0.81043048E+03</rscale>
<asrwt>0</asrwt>
<pdfrwt beam="1">  1        1 0.11369913E+00 0.81043048E+03</pdfrwt>
<pdfrwt beam="2">  1       -1 0.34181229E-01 0.81043048E+03</pdfrwt>
<totfact> 0.20486427E+02</totfact>
</mgrwt>
</event>
<event>
 4      1 +1.5204000e-02 4.35462400e+02 7.81860800e-03 1.03214800e-01
       -3 -1    0    0    0  501 -0.0000000000e+00 +0.0000000000e+00 +5.1068625843e+02 5.1068625843e+02 0.0000000000e+00 0.0000e+00 1.0000e+00
        3 -1    0    0  501    0 +0.0000000000e+00 -0.0000000000e+00 -9.2829752622e+01 9.2829752622e+01 0.0000000000e+00 0.0000e+00 -1.0000e+00
     -556  1    1    2    0    0 -4.6708427255e+01 +4.8997816370e+01 +1.3527321826e+02 2.5076145390e+02 2.0000000000e+02 0.0000e+00 -1.0000e+00
      556  1    1    2    0    0 +4.6708427255e+01 -4.8997816370e+01 +2.8258328755e+02 3.5275455714e+02 2.0000000000e+02 0.0000e+00 1.0000e+00
<mgrwt>
<rscale>  0 0.43546242E+03</rscale>
<asrwt>0</asrwt>
<pdfrwt beam="2">  1        3 0.14281501E-01 0.43546242E+03</pdfrwt>
<pdfrwt beam="1">  1       -3 0.78567115E-01 0.43546242E+03</pdfrwt>
<totfact> 0.16318563E+02</totfact>
</mgrwt>
</event>
<event>
 4      1 +1.5204000e-02 6.61885900e+02 7.81860800e-03 9.78472800e-02
        1 -1    0    0  501    0 +0.0000000000e+00 +0.0000000000e+00 +1.0382381641e+03 1.0382381641e+03 0.0000000000e+00 0.0000e+00 -1.0000e+00
       -1 -1    0    0    0  501 -0.0000000000e+00 -0.0000000000e+00 -1.0548952262e+02 1.0548952262e+02 0.0000000000e+00 0.0000e+00 1.0000e+00
     -556  1    1    2    0    0 -6.9392121316e+01 +6.2645679195e+01 +8.9239662305e+02 9.1929945092e+02 2.0000000000e+02 0.0000e+00 -1.0000e+00
      556  1    1    2    0    0 +6.9392121316e+01 -6.2645679195e+01 +4.0352018399e+01 2.2442823577e+02 2.0000000000e+02 0.0000e+00 1.0000e+00
<mgrwt>
<rscale>  0 0.66188594E+03</rscale>
<asrwt>0</asrwt>
<pdfrwt beam="1">  1        1 0.15972894E+00 0.66188594E+03</pdfrwt>
<pdfrwt beam="2">  1       -1 0.16229158E-01 0.66188594E+03</pdfrwt>
<totfact> 0.41438744E+02</totfact>
</mgrwt>
</event>
<event>
 4      1 +1.5204000e-02 7.93981600e+02 7.81860800e-03 9.56877000e-02
       -1 -1    0    0    0  501 -0.0000000000e+00 +0.0000000000e+00 +9.9414894792e+01 9.9414894792e+01 0.0000000000e+00 0.0000e+00 1.0000e+00
        1 -1    0    0  501    0 +0.0000000000e+00 -0.0000000000e+00 -1.5852926028e+03 1.5852926028e+03 0.0000000000e+00 0.0000e+00 -1.0000e+00
     -556  1    1    2    0    0 +1.8406462029e+02 -1.0730464381e+02 -1.7276722703e+02 3.3947398392e+02 2.0000000000e+02 0.0000e+00 1.0000e+00
      556  1    1    2    0    0 -1.8406462029e+02 +1.0730464381e+02 -1.3131104810e+03 1.3452335137e+03 2.0000000000e+02 0.0000e+00 -1.0000e+00
<mgrwt>
<rscale>  0 0.79398161E+03</rscale>
<asrwt>0</asrwt>
<pdfrwt beam="2">  1        1 0.24389117E+00 0.79398161E+03</pdfrwt>
<pdfrwt beam="1">  1       -1 0.15294599E-01 0.79398161E+03</pdfrwt>
<totfact> 0.18512892E+02</totfact>
</mgrwt>
</event>
<event>
 4      1 +1.5204000e-02 5.15847700e+02 7.81860800e-03 1.00972300e-01
       -2 -1    0    0    0  501 -0.0000000000e+00 +0.0000000000e+00 +3.0838332484e+01 3.0838332484e+01 0.0000000000e+00 0.0000e+00 1.0000e+00
        2 -1    0    0  501    0 +0.0000000000e+00 -0.0000000000e+00 -2.1572085232e+03 2.1572085232e+03 0.0000000000e+00 0.0000e+00 -1.0000e+00
     -556  1    1    2    0    0 -1.4397685897e+02 +6.7986758448e+01 -9.1790130868e+02 9.5283490055e+02 2.0000000000e+02 0.0000e+00 1.0000e+00
      556  1    1    2    0    0 +1.4397685897e+02 -6.7986758448e+01 -1.2084688821e+03 1.2352119552e+03 2.0000000000e+02 0.0000e+00 -1.0000e+00
<mgrwt>
<rscale>  0 0.51584770E+03</rscale>
<asrwt>0</asrwt>
<pdfrwt beam="2">  1        2 0.33187829E+00 0.51584770E+03</pdfrwt>
<pdfrwt beam="1">  1       -2 0.47443581E-02 0.51584770E+03</pdfrwt>
<totfact> 0.12745294E+03</totfact>
</mgrwt>
</event>
<event>
 4      1 +1.5204000e-02 7.81315700e+02 7.81860800e-03 9.58746300e-02
       -2 -1    0    0    0  501 -0.0000000000e+00 +0.0000000000e+00 +4.6398467711e+01 4.6398467711e+01 0.0000000000e+00 0.0000e+00 1.0000e+00
        2 -1    0    0  501    0 +0.0000000000e+00 -0.0000000000e+00 -3.2891937422e+03 3.2891937422e+03 0.0000000000e+00 0.0000e+00 -1.0000e+00
     -556  1    1    2    0    0 -1.8446095934e+02 -2.7477679357e+02 -1.8585368650e+03 1.8983380654e+03 2.0000000000e+02 0.0000e+00 1.0000e+00
      556  1    1    2    0    0 +1.8446095934e+02 +2.7477679357e+02 -1.3842584095e+03 1.4372541445e+03 2.0000000000e+02 0.0000e+00 -1.0000e+00
<mgrwt>
<rscale>  0 0.78131568E+03</rscale>
<asrwt>0</asrwt>
<pdfrwt beam="2">  1        2 0.50602984E+00 0.78131568E+03</pdfrwt>
<pdfrwt beam="1">  1       -2 0.71382253E-02 0.78131568E+03</pdfrwt>
<totfact> 0.14202951E+02</totfact>
</mgrwt>
</event>
<event>
 4      1 +1.5204000e-02 9.09370800e+02 7.81860800e-03 9.41394300e-02
       -2 -1    0    0    0  501 -0.0000000000e+00 +0.0000000000e+00 +1.2441342514e+03 1.2441342514e+03 0.0000000000e+00 0.0000e+00 1.0000e+00
        2 -1    0    0  501    0 +0.0000000000e+00 -0.0000000000e+00 -1.6617083147e+02 1.6617083147e+02 0.0000000000e+00 0.0000e+00 -1.0000e+00
     -556  1    1    2    0    0 +2.3914482113e+02 +3.3084100772e+02 +5.5392196909e+02 7.1657209386e+02 2.0000000000e+02 0.0000e+00 1.0000e+00
      556  1    1    2    0    0 -2.3914482113e+02 -3.3084100772e+02 +5.2404145087e+02 6.9373298905e+02 2.0000000000e+02 0.0000e+00 -1.0000e+00
<mgrwt>
<rscale>  0 0.90937082E+03</rscale>
<asrwt>0</asrwt>
<pdfrwt beam="2">  1        2 0.25564744E-01 0.90937082E+03</pdfrwt>
<pdfrwt beam="1">  1       -2 0.19140526E+00 0.90937082E+03</pdfrwt>
<totfact> 0.32572365E+01</totfact>
</mgrwt>
</event>
<event>
 4      1 +1.5204000e-02 4.70622000e+02 7.81860800e-03 1.02174500e-01
       -1 -1    0    0    0  501 -0.0000000000e+00 +0.0000000000e+00 +6.7784994505e+02 6.7784994505e+02 0.0000000000e+00 0.0000e+00 1.0000e+00
        1 -1    0    0  501    0 +0.0000000000e+00 -0.0000000000e+00 -8.1686599250e+01 8.1686599250e+01 0.0000000000e+00 0.0000e+00 -1.0000e+00
     -556  1    1    2    0    0 -5.9588429000e+01 +1.0104098492e+02 +3.6286311067e+02 4.3061548809e+02 2.0000000000e+02 0.0000e+00 1.0000e+00
      556  1    1    2    0    0 +5.9588429000e+01 -1.0104098492e+02 +2.3330023514e+02 3.2892105621e+02 2.0000000000e+02 0.0000e+00 -1.0000e+00
<mgrwt>
<rscale>  0 0.47062196E+03</rscale>
<asrwt>0</asrwt>
<pdfrwt beam="2">  1        1 0.12567170E-01 0.47062196E+03</pdfrwt>
<pdfrwt beam="1">  1       -1 0.10428460E+00 0.47062196E+03</pdfrwt>
<totfact> 0.43136146E+02</totfact>
</mgrwt>
</event>
<event>
 4      1 +1.5204000e-02 4.42151300e+02 7.81860800e-03 1.03008900e-01
        1 -1    0    0  501    0 +0.0000000000e+00 +0.0000000000e+00 +1.3369571898e+03 1.3369571898e+03 0.0000000000e+00 0.0000e+00 -1.0000e+00
       -1 -1    0    0    0  501 -0.0000000000e+00 -0.0000000000e+00 -3.6556478070e+01 3.6556478070e+01 0.0000000000e+00 0.0000e+00 1.0000e+00
     -556  1    1    2    0    0 -5.0280962847e+01 +6.0587518337e+01 +8.1087906753e+02 8.3888252143e+02 2.0000000000e+02 0.0000e+00 -1.0000e+00
      556  1    1    2    0    0 +5.0280962847e+01 -6.0587518337e+01 +4.8952164419e+02 5.3463114643e+02 2.0000000000e+02 0.0000e+00 1.0000e+00
<mgrwt>
<rscale>  0 0.44215131E+03</rscale>
<asrwt>0</asrwt>
<pdfrwt beam="1">  1        1 0.20568568E+00 0.44215131E+03</pdfrwt>
<pdfrwt beam="2">  1       -1 0.56240746E-02 0.44215131E+03</pdfrwt>
<totfact> 0.13499531E+03</totfact>
</mgrwt>
</event>
<event>
 4      1 +1.5204000e-02 5.44736800e+02 7.81860800e-03 1.00272000e-01
        2 -1    0    0  501    0 +0.0000000000e+00 +0.0000000000e+00 +8.7182393625e+02 8.7182393625e+02 0.0000000000e+00 0.0000e+00 -1.0000e+00
       -2 -1    0    0    0  501 -0.0000000000e+00 -0.0000000000e+00 -8.5091210424e+01 8.5091210424e+01 0.0000000000e+00 0.0000e+00 1.0000e+00
     -556  1    1    2    0    0 +1.5726119223e+02 -3.4615360818e+01 +2.3375942838e+02 3.4723590849e+02 2.0000000000e+02 0.0000e+00 1.0000e+00
      556  1    1    2    0    0 -1.5726119223e+02 +3.4615360818e+01 +5.5297329744e+02 6.0967923818e+02 2.0000000000e+02 0.0000e+00 -1.0000e+00
<mgrwt>
<rscale>  0 0.54473683E+03</rscale>
<asrwt>0</asrwt>
<pdfrwt beam="1">  1        2 0.13412675E+00 0.54473683E+03</pdfrwt>
<pdfrwt beam="2">  1       -2 0.13090956E-01 0.54473683E+03</pdfrwt>
<totfact> 0.13570787E+03</totfact>
</mgrwt>
</event>
<event>
 4      1 +1.5204000e-02 6.46531700e+02 7.81860800e-03 9.81330900e-02
       -1 -1    0    0    0  501 -0.0000000000e+00 +0.0000000000e+00 +1.4142654603e+03 1.4142654603e+03 0.0000000000e+00 0.0000e+00 1.0000e+00
        1 -1    0    0  501    0 +0.0000000000e+00 -0.0000000000e+00 -7.3890508401e+01 7.3890508401e+01 0.0000000000e+00 0.0000e+00 -1.0000e+00
     -556  1    1    2    0    0 -8.7741406507e+01 +2.0779765896e+02 +9.3883635590e+02 9.8604874355e+02 2.0000000000e+02 0.0000e+00 1.0000e+00
      556  1    1    2    0    0 +8.7741406507e+01 -2.0779765896e+02 +4.0153859602e+02 5.0210722518e+02 2.0000000000e+02 0.0000e+00 -1.0000e+00
<mgrwt>
<rscale>  0 0.64653165E+03</rscale>
<asrwt>0</asrwt>
<pdfrwt beam="2">  1        1 0.11367772E-01 0.64653165E+03</pdfrwt>
<pdfrwt beam="1">  1       -1 0.21757928E+00 0.64653165E+03</pdfrwt>
<totfact> 0.66386436E+01</totfact>
</mgrwt>
</event>
<event>
 4      1 +1.5204000e-02 4.30739900e+02 7.81860800e-03 1.03362600e-01
        2 -1    0    0  501    0 +0.0000000000e+00 +0.0000000000e+00 +4.9716701568e+02 4.9716701568e+02 0.0000000000e+00 0.0000e+00 1.0000e+00
       -2 -1    0    0    0  501 -0.0000000000e+00 -0.0000000000e+00 -9.3297053142e+01 9.3297053142e+01 0.0000000000e+00 0.0000e+00 -1.0000e+00
     -556  1    1    2    0    0 +1.1114341218e+01 -3.0646800455e+01 +3.0193356888e+02 3.6362980485e+02 2.0000000000e+02 0.0000e+00 1.0000e+00
      556  1    1    2    0    0 -1.1114341218e+01 +3.0646800455e+01 +1.0193639365e+02 2.2683426397e+02 2.0000000000e+02 0.0000e+00 -1.0000e+00
<mgrwt>
<rscale>  0 0.43073991E+03</rscale>
<asrwt>0</asrwt>
<pdfrwt beam="1">  1        2 0.76487232E-01 0.43073991E+03</pdfrwt>
<pdfrwt beam="2">  1       -2 0.14353393E-01 0.43073991E+03</pdfrwt>
<totfact> 0.23221567E+03</totfact>
</mgrwt>
</event>
<event>
 4      1 +1.5204000e-02 9.93089200e+02 7.81860800e-03 9.31615700e-02
       -2 -1    0    0    0  501 -0.0000000000e+00 +0.0000000000e+00 +1.6396314914e+02 1.6396314914e+02 0.0000000000e+00 0.0000e+00 1.0000e+00
        2 -1    0    0  501    0 +0.0000000000e+00 -0.0000000000e+00 -1.5037315291e+03 1.5037315291e+03 0.0000000000e+00 0.0000e+00 -1.0000e+00
     -556  1    1    2    0    0 -3.3948598612e+02 +1.3473480317e+01 -1.6295728517e+02 4.2659974945e+02 2.0000000000e+02 0.0000e+00 1.0000e+00
      556  1    1    2    0    0 +3.3948598612e+02 -1.3473480317e+01 -1.1768110948e+03 1.2410949288e+03 2.0000000000e+02 0.0000e+00 -1.0000e+00
<mgrwt>
<rscale>  0 0.99308923E+03</rscale>
<asrwt>0</asrwt>
<pdfrwt beam="2">  1        2 0.23134331E+00 0.99308923E+03</pdfrwt>
<pdfrwt beam="1">  1       -2 0.25225100E-01 0.99308923E+03</pdfrwt>
<totfact> 0.17792740E+02</totfact>
</mgrwt>
</event>
<event>
 4      1 +1.5204000e-02 8.84891000e+02 7.81860800e-03 9.44466800e-02
       -1 -1    0    0    0  501 -0.0000000000e+00 +0.0000000000e+00 +1.1122915670e+02 1.1122915670e+02 0.0000000000e+00 0.0000e+00 1.0000e+00
        1 -1    0    0  501    0 +0.0000000000e+00 -0.0000000000e+00 -1.7599522606e+03 1.7599522606e+03 0.0000000000e+00 0.0000e+00 -1.0000e+00
     -556  1    1    2    0    0 +3.5876178347e+02 +1.2779761313e+02 -6.0546566839e+02 7.4271860270e+02 2.0000000000e+02 0.0000e+00 -1.0000e+00
      556  1    1    2    0    0 -3.5876178347e+02 -1.2779761313e+02 -1.0432574355e+03 1.1284628146e+03 2.0000000000e+02 0.0000e+00 1.0000e+00
<mgrwt>
<rscale>  0 0.88489097E+03</rscale>
<asrwt>0</asrwt>
<pdfrwt beam="2">  1        1 0.27076189E+00 0.88489097E+03</pdfrwt>
<pdfrwt beam="1">  1       -1 0.17112178E-01 0.88489097E+03</pdfrwt>
<totfact> 0.11650890E+02</totfact>
</mgrwt>
</event>
<event>
 4      1 +1.5204000e-02 1.97521100e+03 7.81860800e-03 8.61829900e-02
        2 -1    0    0  501    0 +0.0000000000e+00 +0.0000000000e+00 +2.9018017820e+03 2.9018017820e+03 0.0000000000e+00 0.0000e+00 1.0000e+00
       -2 -1    0    0    0  501 -0.0000000000e+00 -0.0000000000e+00 -3.3612390106e+02 3.3612390106e+02 0.0000000000e+00 0.0000e+00 -1.0000e+00
     -556  1    1    2    0    0 +8.8982598409e+02 -1.0773070701e+02 +6.8732921322e+02 1.1470909443e+03 2.0000000000e+02 0.0000e+00 -1.0000e+00
      556  1    1    2    0    0 -8.8982598409e+02 +1.0773070701e+02 +1.8783486677e+03 2.0908347388e+03 2.0000000000e+02 0.0000e+00 1.0000e+00
<mgrwt>
<rscale>  0 0.19752113E+04</rscale>
<asrwt>0</asrwt>
<pdfrwt beam="1">  1        2 0.44643103E+00 0.19752113E+04</pdfrwt>
<pdfrwt beam="2">  1       -2 0.51711371E-01 0.19752113E+04</pdfrwt>
<totfact> 0.66026135E+00</totfact>
</mgrwt>
</event>
<event>
 4      1 +1.5204000e-02 6.15929600e+02 7.81860800e-03 9.87289700e-02
        1 -1    0    0  501    0 +0.0000000000e+00 +0.0000000000e+00 +9.9475835917e+02 9.9475835917e+02 0.0000000000e+00 0.0000e+00 -1.0000e+00
       -1 -1    0    0    0  501 -0.0000000000e+00 -0.0000000000e+00 -9.5342073984e+01 9.5342073984e+01 0.0000000000e+00 0.0000e+00 1.0000e+00
     -556  1    1    2    0    0 +1.5442372219e+02 +1.7421042299e+02 +4.9470427816e+02 5.8217547207e+02 2.0000000000e+02 0.0000e+00 1.0000e+00
      556  1    1    2    0    0 -1.5442372219e+02 -1.7421042299e+02 +4.0471200703e+02 5.0792496108e+02 2.0000000000e+02 0.0000e+00 -1.0000e+00
<mgrwt>
<rscale>  0 0.61592962E+03</rscale>
<asrwt>0</asrwt>
<pdfrwt beam="1">  1        1 0.15303974E+00 0.61592962E+03</pdfrwt>
<pdfrwt beam="2">  1       -1 0.14668012E-01 0.61592962E+03</pdfrwt>
<totfact> 0.52855806E+02</totfact>
</mgrwt>
</event>
<event>
 4      1 +1.5204000e-02 8.36419400e+02 7.81860800e-03 9.50874800e-02
        2 -1    0    0  501    0 +0.0000000000e+00 +0.0000000000e+00 +5.5816882986e+02 5.5816882986e+02 0.0000000000e+00 0.0000e+00 -1.0000e+00
       -2 -1    0    0    0  501 -0.0000000000e+00 -0.0000000000e+00 -3.1334489428e+02 3.1334489428e+02 0.0000000000e+00 0.0000e+00 1.0000e+00
     -556  1    1    2    0    0 -2.2342667362e+01 -3.5343629122e+01 -2.5779697447e+02 3.2894930757e+02 2.0000000000e+02 0.0000e+00 1.0000e+00
      556  1    1    2    0    0 +2.2342667362e+01 +3.5343629122e+01 +5.0262091005e+02 5.4256441656e+02 2.0000000000e+02 0.0000e+00 -1.0000e+00
<mgrwt>
<rscale>  0 0.83641940E+03</rscale>
<asrwt>0</asrwt>
<pdfrwt beam="1">  1        2 0.85872127E-01 0.83641940E+03</pdfrwt>
<pdfrwt beam="2">  1       -2 0.48206907E-01 0.83641940E+03</pdfrwt>
<totfact> 0.22177011E+02</totfact>
</mgrwt>
</event>
<event>
 4      1 +1.5204000e-02 6.69558400e+02 7.81860800e-03 9.77075600e-02
       -2 -1    0    0    0  501 -0.0000000000e+00 +0.0000000000e+00 +3.2104407092e+01 3.2104407092e+01 0.0000000000e+00 0.0000e+00 1.0000e+00
        2 -1    0    0  501    0 +0.0000000000e+00 -0.0000000000e+00 -3.4910195451e+03 3.4910195451e+03 0.0000000000e+00 0.0000e+00 -1.0000e+00
     -556  1    1    2    0    0 -1.1060034479e+02 +1.7856323104e+02 -2.6093039871e+03 2.6253732232e+03 2.0000000000e+02 0.0000e+00 -1.0000e+00
      556  1    1    2    0    0 +1.1060034479e+02 -1.7856323104e+02 -8.4961115091e+02 8.9775072904e+02 2.0000000000e+02 0.0000e+00 1.0000e+00
<mgrwt>
<rscale>  0 0.66955840E+03</rscale>
<asrwt>0</asrwt>
<pdfrwt beam="2">  1        2 0.53708017E+00 0.66955840E+03</pdfrwt>
<pdfrwt beam="1">  1       -2 0.49391373E-02 0.66955840E+03</pdfrwt>
<totfact> 0.18877923E+02</totfact>
</mgrwt>
</event>
<event>
 4      1 +1.5204000e-02 9.46333400e+02 7.81860800e-03 9.36944700e-02
        2 -1    0    0  501    0 +0.0000000000e+00 +0.0000000000e+00 +1.4895834250e+03 1.4895834250e+03 0.0000000000e+00 0.0000e+00 -1.0000e+00
       -2 -1    0    0    0  501 -0.0000000000e+00 -0.0000000000e+00 -1.5030156633e+02 1.5030156633e+02 0.0000000000e+00 0.0000e+00 1.0000e+00
     -556  1    1    2    0    0 -1.3188674766e+02 -3.6128210878e+02 +9.9828548295e+02 1.0883440549e+03 2.0000000000e+02 0.0000e+00 -1.0000e+00
      556  1    1    2    0    0 +1.3188674766e+02 +3.6128210878e+02 +3.4099637577e+02 5.5154093648e+02 2.0000000000e+02 0.0000e+00 1.0000e+00
<mgrwt>
<rscale>  0 0.94633339E+03</rscale>
<asrwt>0</asrwt>
<pdfrwt beam="1">  1        2 0.22916667E+00 0.94633339E+03</pdfrwt>
<pdfrwt beam="2">  1       -2 0.23123319E-01 0.94633339E+03</pdfrwt>
<totfact> 0.21257307E+02</totfact>
</mgrwt>
</event>
<event>
 4      1 +1.5204000e-02 5.38297800e+02 7.81860800e-03 1.00423900e-01
        2 -1    0    0  501    0 +0.0000000000e+00 +0.0000000000e+00 +1.1292123481e+03 1.1292123481e+03 0.0000000000e+00 0.0000e+00 1.0000e+00
       -2 -1    0    0    0  501 -0.0000000000e+00 -0.0000000000e+00 -6.4151916569e+01 6.4151916569e+01 0.0000000000e+00 0.0000e+00 -1.0000e+00
     -556  1    1    2    0    0 -1.6748732468e+02 -1.0133633220e+00 +6.7938528309e+02 7.2774816641e+02 2.0000000000e+02 0.0000e+00 1.0000e+00
      556  1    1    2    0    0 +1.6748732468e+02 +1.0133633220e+00 +3.8567514845e+02 4.6561609827e+02 2.0000000000e+02 0.0000e+00 -1.0000e+00
<mgrwt>
<rscale>  0 0.53829782E+03</rscale>
<asrwt>0</asrwt>
<pdfrwt beam="1">  1        2 0.17372496E+00 0.53829782E+03</pdfrwt>
<pdfrwt beam="2">  1       -2 0.98695265E-02 0.53829782E+03</pdfrwt>
<totfact> 0.14807051E+03</totfact>
</mgrwt>
</event>
<event>
 4      1 +1.5204000e-02 1.53601000e+03 7.81860800e-03 8.86085400e-02
       -2 -1    0    0    0  501 -0.0000000000e+00 +0.0000000000e+00 +4.7530952074e+02 4.7530952074e+02 0.0000000000e+00 0.0000e+00 1.0000e+00
        2 -1    0    0  501    0 +0.0000000000e+00 -0.0000000000e+00 -1.2409417220e+03 1.2409417220e+03 0.0000000000e+00 0.0000e+00 -1.0000e+00
     -556  1    1    2    0    0 +1.0682393168e+02 +6.6771874822e+02 -4.2857429223e+01 7.0646757770e+02 2.0000000000e+02 0.0000e+00 1.0000e+00
      556  1    1    2    0    0 -1.0682393168e+02 -6.6771874822e+02 -7.2277477209e+02 1.0097836651e+03 2.0000000000e+02 0.0000e+00 -1.0000e+00
<mgrwt>
<rscale>  0 0.15360097E+04</rscale>
<asrwt>0</asrwt>
<pdfrwt beam="2">  1        2 0.19091411E+00 0.15360097E+04</pdfrwt>
<pdfrwt beam="1">  1       -2 0.73124543E-01 0.15360097E+04</pdfrwt>
<totfact> 0.29143962E+01</totfact>
</mgrwt>
</event>
<event>
 4      1 +1.5204000e-02 8.75532100e+02 7.81860800e-03 9.45669500e-02
       -2 -1    0    0    0  501 -0.0000000000e+00 +0.0000000000e+00 +9.2891626925e+01 9.2891626925e+01 0.0000000000e+00 0.0000e+00 1.0000e+00
        2 -1    0    0  501    0 +0.0000000000e+00 -0.0000000000e+00 -2.0630395528e+03 2.0630395528e+03 0.0000000000e+00 0.0000e+00 -1.0000e+00
     -556  1    1    2    0    0 +3.0529495242e+02 +7.9965488984e+01 -1.5468068689e+03 1.5912922350e+03 2.0000000000e+02 0.0000e+00 -1.0000e+00
      556  1    1    2    0    0 -3.0529495242e+02 -7.9965488984e+01 -4.2334105693e+02 5.6463894471e+02 2.0000000000e+02 0.0000e+00 1.0000e+00
<mgrwt>
<rscale>  0 0.87553207E+03</rscale>
<asrwt>0</asrwt>
<pdfrwt beam="2">  1        2 0.31739066E+00 0.87553207E+03</pdfrwt>
<pdfrwt beam="1">  1       -2 0.14291022E-01 0.87553207E+03</pdfrwt>
<totfact> 0.23779700E+02</totfact>
</mgrwt>
</event>
<event>
 4      1 +1.5204000e-02 7.59387000e+02 7.81860800e-03 9.62073800e-02
        1 -1    0    0  501    0 +0.0000000000e+00 +0.0000000000e+00 +1.4417688012e+03 1.4417688012e+03 0.0000000000e+00 0.0000e+00 -1.0000e+00
       -1 -1    0    0    0  501 -0.0000000000e+00 -0.0000000000e+00 -9.9993258156e+01 9.9993258156e+01 0.0000000000e+00 0.0000e+00 1.0000e+00
     -556  1    1    2    0    0 +5.6592822730e+01 -2.5857189929e+02 +2.9594661044e+02 4.4457459545e+02 2.0000000000e+02 0.0000e+00 1.0000e+00
      556  1    1    2    0    0 -5.6592822730e+01 +2.5857189929e+02 +1.0458289326e+03 1.0971874639e+03 2.0000000000e+02 0.0000e+00 -1.0000e+00
<mgrwt>
<rscale>  0 0.75938702E+03</rscale>
<asrwt>0</asrwt>
<pdfrwt beam="1">  1        1 0.22181057E+00 0.75938702E+03</pdfrwt>
<pdfrwt beam="2">  1       -1 0.15383579E-01 0.75938702E+03</pdfrwt>
<totfact> 0.23050730E+02</totfact>
</mgrwt>
</event>
<event>
 4      1 +1.5204000e-02 6.08147800e+02 7.81860800e-03 9.88864500e-02
        1 -1    0    0  501    0 +0.0000000000e+00 +0.0000000000e+00 +4.5957532684e+01 4.5957532684e+01 0.0000000000e+00 0.0000e+00 -1.0000e+00
       -1 -1    0    0    0  501 -0.0000000000e+00 -0.0000000000e+00 -2.0118774498e+03 2.0118774498e+03 0.0000000000e+00 0.0000e+00 1.0000e+00
     -556  1    1    2    0    0 -7.1594626677e+01 +1.2398911834e+02 -3.7801304407e+02 4.5099107921e+02 2.0000000000e+02 0.0000e+00 -1.0000e+00
      556  1    1    2    0    0 +7.1594626677e+01 -1.2398911834e+02 -1.5879068730e+03 1.6068439032e+03 2.0000000000e+02 0.0000e+00 1.0000e+00
<mgrwt>
<rscale>  0 0.60814776E+03</rscale>
<asrwt>0</asrwt>
<pdfrwt beam="1">  1        1 0.70703911E-02 0.60814776E+03</pdfrwt>
<pdfrwt beam="2">  1       -1 0.30951954E+00 0.60814776E+03</pdfrwt>
<totfact> 0.32980399E+01</totfact>
</mgrwt>
</event>
<event>
 4      1 +1.5204000e-02 4.75984500e+02 7.81860800e-03 1.02024500e-01
       -1 -1    0    0    0  501 -0.0000000000e+00 +0.0000000000e+00 +4.9488020190e+01 4.9488020190e+01 0.0000000000e+00 0.0000e+00 1.0000e+00
        1 -1    0    0  501    0 +0.0000000000e+00 -0.0000000000e+00 -1.1445259345e+03 1.1445259345e+03 0.0000000000e+00 0.0000e+00 -1.0000e+00
     -556  1    1    2    0    0 +9.1850081974e+01 -5.3247749196e+01 -3.6371894212e+02 4.2844279572e+02 2.0000000000e+02 0.0000e+00 1.0000e+00
      556  1    1    2    0    0 -9.1850081974e+01 +5.3247749196e+01 -7.3131897222e+02 7.6557115899e+02 2.0000000000e+02 0.0000e+00 -1.0000e+00
<mgrwt>
<rscale>  0 0.47598455E+03</rscale>
<asrwt>0</asrwt>
<pdfrwt beam="2">  1        1 0.17608090E+00 0.47598455E+03</pdfrwt>
<pdfrwt beam="1">  1       -1 0.76135423E-02 0.47598455E+03</pdfrwt>
<totfact> 0.11578905E+03</totfact>
</mgrwt>
</event>
<event>
 4      1 +1.5204000e-02 4.50930700e+02 7.81860800e-03 1.02744500e-01
        2 -1    0    0  501    0 +0.0000000000e+00 +0.0000000000e+00 +1.6972060876e+03 1.6972060876e+03 0.0000000000e+00 0.0000e+00 -1.0000e+00
       -2 -1    0    0    0  501 -0.0000000000e+00 -0.0000000000e+00 -2.9951943480e+01 2.9951943480e+01 0.0000000000e+00 0.0000e+00 1.0000e+00
     -556  1    1    2    0    0 -3.5887978390e+01 -4.8712541792e+01 +5.0921592294e+02 5.5041958077e+02 2.0000000000e+02 0.0000e+00 1.0000e+00
      556  1    1    2    0    0 +3.5887978390e+01 +4.8712541792e+01 +1.1580382212e+03 1.1767384503e+03 2.0000000000e+02 0.0000e+00 -1.0000e+00
<mgrwt>
<rscale>  0 0.45093069E+03</rscale>
<asrwt>0</asrwt>
<pdfrwt beam="1">  1        2 0.26110855E+00 0.45093069E+03</pdfrwt>
<pdfrwt beam="2">  1       -2 0.46079926E-02 0.45093069E+03</pdfrwt>
<totfact> 0.23645070E+03</totfact>
</mgrwt>
</event>
<event>
 4      1 +1.5204000e-02 7.98256800e+02 7.81860800e-03 9.56254400e-02
        1 -1    0    0  501    0 +0.0000000000e+00 +0.0000000000e+00 +9.4075893785e+02 9.4075893785e+02 0.0000000000e+00 0.0000e+00 -1.0000e+00
       -1 -1    0    0    0  501 -0.0000000000e+00 -0.0000000000e+00 -1.6933506747e+02 1.6933506747e+02 0.0000000000e+00 0.0000e+00 1.0000e+00
     -556  1    1    2    0    0 -1.5502363942e+02 +5.8623960756e+01 -3.5712567824e+01 2.6219169524e+02 2.0000000000e+02 0.0000e+00 1.0000e+00
      556  1    1    2    0    0 +1.5502363942e+02 -5.8623960756e+01 +8.0713643821e+02 8.4790231008e+02 2.0000000000e+02 0.0000e+00 -1.0000e+00
<mgrwt>
<rscale>  0 0.79825680E+03</rscale>
<asrwt>0</asrwt>
<pdfrwt beam="1">  1        1 0.14473214E+00 0.79825680E+03</pdfrwt>
<pdfrwt beam="2">  1       -1 0.26051550E-01 0.79825680E+03</pdfrwt>
<totfact> 0.22211972E+02</totfact>
</mgrwt>
</event>
<event>
 4      1 +1.5204000e-02 8.32447000e+02 7.81860800e-03 9.51420400e-02
        1 -1    0    0  501    0 +0.0000000000e+00 +0.0000000000e+00 +2.4206386049e+02 2.4206386049e+02 0.0000000000e+00 0.0000e+00 -1.0000e+00
       -1 -1    0    0    0  501 -0.0000000000e+00 -0.0000000000e+00 -7.1568724313e+02 7.1568724313e+02 0.0000000000e+00 0.0000e+00 1.0000e+00
     -556  1    1    2    0    0 +1.4571706087e+02 -4.6201216118e+01 -6.1817905353e+02 6.6746786920e+02 2.0000000000e+02 0.0000e+00 1.0000e+00
      556  1    1    2    0    0 -1.4571706087e+02 +4.6201216118e+01 +1.4455567089e+02 2.9028323442e+02 2.0000000000e+02 0.0000e+00 -1.0000e+00
<mgrwt>
<rscale>  0 0.83244704E+03</rscale>
<asrwt>0</asrwt>
<pdfrwt beam="1">  1        1 0.37240594E-01 0.83244704E+03</pdfrwt>
<pdfrwt beam="2">  1       -1 0.11010573E+00 0.83244704E+03</pdfrwt>
<totfact> 0.89335260E+01</totfact>
</mgrwt>
</event>
<event>
 4      1 +1.5204000e-02 5.42757800e+02 7.81860800e-03 1.00318400e-01
        2 -1    0    0  501    0 +0.0000000000e+00 +0.0000000000e+00 +7.2240579390e+02 7.2240579390e+02 0.0000000000e+00 0.0000e+00 -1.0000e+00
       -2 -1    0    0    0  501 -0.0000000000e+00 -0.0000000000e+00 -1.0194618274e+02 1.0194618274e+02 0.0000000000e+00 0.0000e+00 1.0000e+00
     -556  1    1    2    0    0 -2.0370401576e+01 -1.7272954959e+02 +3.9874023161e+02 4.7879455184e+02 2.0000000000e+02 0.0000e+00 -1.0000e+00
      556  1    1    2    0    0 +2.0370401576e+01 +1.7272954959e+02 +2.2171937955e+02 3.4555742480e+02 2.0000000000e+02 0.0000e+00 1.0000e+00
<mgrwt>
<rscale>  0 0.54275782E+03</rscale>
<asrwt>0</asrwt>
<pdfrwt beam="1">  1        2 0.11113935E+00 0.54275782E+03</pdfrwt>
<pdfrwt beam="2">  1       -2 0.15684029E-01 0.54275782E+03</pdfrwt>
<totfact> 0.12824747E+03</totfact>
</mgrwt>
</event>
<event>
 4      1 +1.5204000e-02 4.33396700e+02 7.81860800e-03 1.03279200e-01
       -2 -1    0    0    0  501 -0.0000000000e+00 +0.0000000000e+00 +3.1770054473e+01 3.1770054473e+01 0.0000000000e+00 0.0000e+00 1.0000e+00
        2 -1    0    0  501    0 +0.0000000000e+00 -0.0000000000e+00 -1.4780638021e+03 1.4780638021e+03 0.0000000000e+00 0.0000e+00 -1.0000e+00
     -556  1    1    2    0    0 +7.3373336472e+01 -2.0935969651e+01 -6.0571873799e+02 6.4243065842e+02 2.0000000000e+02 0.0000e+00 1.0000e+00
      556  1    1    2    0    0 -7.3373336472e+01 +2.0935969651e+01 -8.4057500960e+02 8.6740319811e+02 2.0000000000e+02 0.0000e+00 -1.0000e+00
<mgrwt>
<rscale>  0 0.43339667E+03</rscale>
<asrwt>0</asrwt>
<pdfrwt beam="2">  1        2 0.22739443E+00 0.43339667E+03</pdfrwt>
<pdfrwt beam="1">  1       -2 0.48877008E-02 0.43339667E+03</pdfrwt>
<totfact> 0.28396974E+03</totfact>
</mgrwt>
</event>
<event>
 4      1 +1.5204000e-02 6.69614200e+02 7.81860800e-03 9.77065500e-02
        2 -1    0    0  501    0 +0.0000000000e+00 +0.0000000000e+00 +4.1162828890e+03 4.1162828890e+03 0.0000000000e+00 0.0000e+00 1.0000e+00
       -2 -1    0    0    0  501 -0.0000000000e+00 -0.0000000000e+00 -2.7232286851e+01 2.7232286851e+01 0.0000000000e+00 0.0000e+00 -1.0000e+00
     -556  1    1    2    0    0 -1.2862196199e+02 -1.0517664589e+01 +3.5015335791e+03 3.5096141720e+03 2.0000000000e+02 0.0000e+00 1.0000e+00
      556  1    1    2    0    0 +1.2862196199e+02 +1.0517664589e+01 +5.8751702303e+02 6.3390100388e+02 2.0000000000e+02 0.0000e+00 -1.0000e+00
<mgrwt>
<rscale>  0 0.66961421E+03</rscale>
<asrwt>0</asrwt>
<pdfrwt beam="1">  1        2 0.63327380E+00 0.66961421E+03</pdfrwt>
<pdfrwt beam="2">  1       -2 0.41895859E-02 0.66961421E+03</pdfrwt>
<totfact> 0.83662303E+01</totfact>
</mgrwt>
</event>
<event>
 4      1 +1.5204000e-02 4.43228100e+02 7.81860800e-03 1.02976100e-01
       -1 -1    0    0    0  501 -0.0000000000e+00 +0.0000000000e+00 +1.1975390170e+02 1.1975390170e+02 0.0000000000e+00 0.0000e+00 1.0000e+00
        1 -1    0    0  501    0 +0.0000000000e+00 -0.0000000000e+00 -4.1011431742e+02 4.1011431742e+02 0.0000000000e+00 0.0000e+00 -1.0000e+00
     -556  1    1    2    0    0 -7.5326748305e+01 -5.8597972732e+01 -1.4783949879e+02 2.6639136402e+02 2.0000000000e+02 0.0000e+00 -1.0000e+00
      556  1    1    2    0    0 +7.5326748305e+01 +5.8597972732e+01 -1.4252091693e+02 2.6347685511e+02 2.0000000000e+02 0.0000e+00 1.0000e+00
<mgrwt>
<rscale>  0 0.44322811E+03</rscale>
<asrwt>0</asrwt>
<pdfrwt beam="2">  1        1 0.63094510E-01 0.44322811E+03</pdfrwt>
<pdfrwt beam="1">  1       -1 0.18423677E-01 0.44322811E+03</pdfrwt>
<totfact> 0.13581813E+03</totfact>
</mgrwt>
</event>
<event>
 4      1 +1.5204000e-02 4.99000800e+02 7.81860800e-03 1.01404000e-01
       -1 -1    0    0    0  501 -0.0000000000e+00 +0.0000000000e+00 +6.6273528641e+01 6.6273528641e+01 0.0000000000e+00 0.0000e+00 1.0000e+00
        1 -1    0    0  501    0 +0.0000000000e+00 -0.0000000000e+00 -9.3929595201e+02 9.3929595201e+02 0.0000000000e+00 0.0000e+00 -1.0000e+00
     -556  1    1    2    0    0 +5.1006050895e+01 +9.4968489310e+01 -2.2874549179e+02 3.2240522825e+02 2.0000000000e+02 0.0000e+00 1.0000e+00
      556  1    1    2    0    0 -5.1006050895e+01 -9.4968489310e+01 -6.4427693159e+02 6.8316425241e+02 2.0000000000e+02 0.0000e+00 -1.0000e+00
<mgrwt>
<rscale>  0 0.49900083E+03</rscale>
<asrwt>0</asrwt>
<pdfrwt beam="2">  1        1 0.14450707E+00 0.49900083E+03</pdfrwt>
<pdfrwt beam="1">  1       -1 0.10195927E-01 0.49900083E+03</pdfrwt>
<totfact> 0.10474047E+03</totfact>
</mgrwt>
</event>
<event>
 4      1 +1.5204000e-02 6.97888300e+02 7.81860800e-03 9.72085000e-02
       -2 -1    0    0    0  501 -0.0000000000e+00 +0.0000000000e+00 +8.3863053715e+01 8.3863053715e+01 0.0000000000e+00 0.0000e+00 -1.0000e+00
        2 -1    0    0  501    0 +0.0000000000e+00 -0.0000000000e+00 -1.4519150400e+03 1.4519150400e+03 0.0000000000e+00 0.0000e+00 1.0000e+00
     -556  1    1    2    0    0 -2.4558164989e+02 -8.1535398144e+01 -9.5177452698e+02 1.0063961040e+03 2.0000000000e+02 0.0000e+00 1.0000e+00
      556  1    1    2    0    0 +2.4558164989e+02 +8.1535398144e+01 -4.1627745927e+02 5.2938198969e+02 2.0000000000e+02 0.0000e+00 -1.0000e+00
<mgrwt>
<rscale>  0 0.69788833E+03</rscale>
<asrwt>0</asrwt>
<pdfrwt beam="2">  1        2 0.22337153E+00 0.69788833E+03</pdfrwt>
<pdfrwt beam="1">  1       -2 0.12902009E-01 0.69788833E+03</pdfrwt>
<totfact> 0.61847154E+02</totfact>
</mgrwt>
</event>
<event>
 4      1 +1.5204000e-02 5.86680800e+02 7.81860800e-03 9.93343100e-02
        2 -1    0    0  501    0 +0.0000000000e+00 +0.0000000000e+00 +1.6611198628e+03 1.6611198628e+03 0.0000000000e+00 0.0000e+00 -1.0000e+00
       -2 -1    0    0    0  501 -0.0000000000e+00 -0.0000000000e+00 -5.1801555161e+01 5.1801555161e+01 0.0000000000e+00 0.0000e+00 1.0000e+00
     -556  1    1    2    0    0 -3.6787362405e+01 -1.7357936182e+02 +4.5228984949e+02 5.2540385689e+02 2.0000000000e+02 0.0000e+00 1.0000e+00
      556  1    1    2    0    0 +3.6787362405e+01 +1.7357936182e+02 +1.1570284581e+03 1.1875175611e+03 2.0000000000e+02 0.0000e+00 -1.0000e+00
<mgrwt>
<rscale>  0 0.58668081E+03</rscale>
<asrwt>0</asrwt>
<pdfrwt beam="1">  1        2 0.25555686E+00 0.58668081E+03</pdfrwt>
<pdfrwt beam="2">  1       -2 0.79694713E-02 0.58668081E+03</pdfrwt>
<totfact> 0.10444283E+03</totfact>
</mgrwt>
</event>
<event>
 4      1 +1.5204000e-02 7.98313000e+02 7.81860800e-03 9.56246200e-02
        1 -1    0    0  501    0 +0.0000000000e+00 +0.0000000000e+00 +2.6264622070e+03 2.6264622070e+03 0.0000000000e+00 0.0000e+00 -1.0000e+00
       -1 -1    0    0    0  501 -0.0000000000e+00 -0.0000000000e+00 -6.0661796908e+01 6.0661796908e+01 0.0000000000e+00 0.0000e+00 1.0000e+00
     -556  1    1    2    0    0 -2.6195806288e+02 -1.2861054022e+02 +6.6075194143e+02 7.4950371972e+02 2.0000000000e+02 0.0000e+00 1.0000e+00
      556  1    1    2    0    0 +2.6195806288e+02 +1.2861054022e+02 +1.9050484687e+03 1.9376202842e+03 2.0000000000e+02 0.0000e+00 -1.0000e+00
<mgrwt>
<rscale>  0 0.79831301E+03</rscale>
<asrwt>0</asrwt>
<pdfrwt beam="1">  1        1 0.40407102E+00 0.79831301E+03</pdfrwt>
<pdfrwt beam="2">  1       -1 0.93325862E-02 0.79831301E+03</pdfrwt>
<totfact> 0.80981705E+01</totfact>
</mgrwt>
</event>
<event>
 4      1 +1.5204000e-02 5.65190900e+02 7.81860800e-03 9.98037700e-02
       -1 -1    0    0    0  501 -0.0000000000e+00 +0.0000000000e+00 +7.2992757303e+01 7.2992757303e+01 0.0000000000e+00 0.0000e+00 1.0000e+00
        1 -1    0    0  501    0 +0.0000000000e+00 -0.0000000000e+00 -1.0940838144e+03 1.0940838144e+03 0.0000000000e+00 0.0000e+00 -1.0000e+00
     -556  1    1    2    0    0 -1.1312073489e+02 -1.6447975678e+02 -5.1717367409e+02 5.8933733992e+02 2.0000000000e+02 0.0000e+00 1.0000e+00
      556  1    1    2    0    0 +1.1312073489e+02 +1.6447975678e+02 -5.0391738305e+02 5.7773923183e+02 2.0000000000e+02 0.0000e+00 -1.0000e+00
<mgrwt>
<rscale>  0 0.56519092E+03</rscale>
<asrwt>0</asrwt>
<pdfrwt beam="2">  1        1 0.16832058E+00 0.56519092E+03</pdfrwt>
<pdfrwt beam="1">  1       -1 0.11229655E-01 0.56519092E+03</pdfrwt>
<totfact> 0.68353768E+02</totfact>
</mgrwt>
</event>
<event>
 4      1 +1.5204000e-02 4.98094000e+02 7.81860800e-03 1.01427800e-01
       -2 -1    0    0    0  501 -0.0000000000e+00 +0.0000000000e+00 +5.5089975323e+01 5.5089975323e+01 0.0000000000e+00 0.0000e+00 1.0000e+00
        2 -1    0    0  501    0 +0.0000000000e+00 -0.0000000000e+00 -1.1258748116e+03 1.1258748116e+03 0.0000000000e+00 0.0000e+00 -1.0000e+00
     -556  1    1    2    0    0 +4.5187507488e+01 -1.0708449503e+02 -7.5418295741e+02 7.8886052833e+02 2.0000000000e+02 0.0000e+00 -1.0000e+00
      556  1    1    2    0    0 -4.5187507488e+01 +1.0708449503e+02 -3.1660187890e+02 3.9210425862e+02 2.0000000000e+02 0.0000e+00 1.0000e+00
<mgrwt>
<rscale>  0 0.49809403E+03</rscale>
<asrwt>0</asrwt>
<pdfrwt beam="2">  1        2 0.17321152E+00 0.49809403E+03</pdfrwt>
<pdfrwt beam="1">  1       -2 0.84753804E-02 0.49809403E+03</pdfrwt>
<totfact> 0.19009330E+03</totfact>
</mgrwt>
</event>
<event>
 4      1 +1.5204000e-02 8.12683200e+02 7.81860800e-03 9.54183800e-02
        2 -1    0    0  501    0 +0.0000000000e+00 +0.0000000000e+00 +3.2063550193e+02 3.2063550193e+02 0.0000000000e+00 0.0000e+00 -1.0000e+00
       -2 -1    0    0    0  501 -0.0000000000e+00 -0.0000000000e+00 -5.1495700677e+02 5.1495700677e+02 0.0000000000e+00 0.0000e+00 1.0000e+00
     -556  1    1    2    0    0 +2.7473763264e+02 -4.4025012358e+01 -3.2170789789e+02 4.7001589342e+02 2.0000000000e+02 0.0000e+00 1.0000e+00
      556  1    1    2    0    0 -2.7473763264e+02 +4.4025012358e+01 +1.2738639305e+02 3.6557661527e+02 2.0000000000e+02 0.0000e+00 -1.0000e+00
<mgrwt>
<rscale>  0 0.81268321E+03</rscale>
<asrwt>0</asrwt>
<pdfrwt beam="1">  1        2 0.49328539E-01 0.81268321E+03</pdfrwt>
<pdfrwt beam="2">  1       -2 0.79224154E-01 0.81268321E+03</pdfrwt>
<totfact> 0.14506145E+02</totfact>
</mgrwt>
</event>
<event>
 4      1 +1.5204000e-02 6.44510300e+02 7.81860800e-03 9.81713500e-02
        2 -1    0    0  501    0 +0.0000000000e+00 +0.0000000000e+00 +5.2179741941e+02 5.2179741941e+02 0.0000000000e+00 0.0000e+00 -1.0000e+00
       -2 -1    0    0    0  501 -0.0000000000e+00 -0.0000000000e+00 -1.9902048484e+02 1.9902048484e+02 0.0000000000e+00 0.0000e+00 1.0000e+00
     -556  1    1    2    0    0 -1.4129180287e+01 +1.8313916764e+02 +3.5545129070e+02 4.4730885138e+02 2.0000000000e+02 0.0000e+00 -1.0000e+00
      556  1    1    2    0    0 +1.4129180287e+01 -1.8313916764e+02 -3.2674356131e+01 2.7350905288e+02 2.0000000000e+02 0.0000e+00 1.0000e+00
<mgrwt>
<rscale>  0 0.64451028E+03</rscale>
<asrwt>0</asrwt>
<pdfrwt beam="1">  1        2 0.80276526E-01 0.64451028E+03</pdfrwt>
<pdfrwt beam="2">  1       -2 0.30618536E-01 0.64451028E+03</pdfrwt>
<totfact> 0.58174591E+02</totfact>
</mgrwt>
</event>
<event>
 4      1 +1.5204000e-02 7.33971700e+02 7.81860800e-03 9.66083700e-02
       -1 -1    0    0    0  501 -0.0000000000e+00 +0.0000000000e+00 +9.2055987765e+01 9.2055987765e+01 0.0000000000e+00 0.0000e+00 1.0000e+00
        1 -1    0    0  501    0 +0.0000000000e+00 -0.0000000000e+00 -1.4630077455e+03 1.4630077455e+03 0.0000000000e+00 0.0000e+00 -1.0000e+00
     -556  1    1    2    0    0 +5.3351798321e+01 -1.3355871978e+02 -1.2618015030e+03 1.2856233426e+03 2.0000000000e+02 0.0000e+00 -1.0000e+00
      556  1    1    2    0    0 -5.3351798321e+01 +1.3355871978e+02 -1.0915025470e+02 2.6944039065e+02 2.0000000000e+02 0.0000e+00 1.0000e+00
<mgrwt>
<rscale>  0 0.73397172E+03</rscale>
<asrwt>0</asrwt>
<pdfrwt beam="2">  1        1 0.22507810E+00 0.73397172E+03</pdfrwt>
<pdfrwt beam="1">  1       -1 0.14162460E-01 0.73397172E+03</pdfrwt>
<totfact> 0.25536884E+02</totfact>
</mgrwt>
</event>
<event>
 4      1 +1.5204000e-02 1.53635900e+03 7.81860800e-03 8.86062800e-02
       -1 -1    0    0    0  501 -0.0000000000e+00 +0.0000000000e+00 +1.1780653557e+03 1.1780653557e+03 0.0000000000e+00 0.0000e+00 1.0000e+00
        1 -1    0    0  501    0 +0.0000000000e+00 -0.0000000000e+00 -5.0090592022e+02 5.0090592022e+02 0.0000000000e+00 0.0000e+00 -1.0000e+00
     -556  1    1    2    0    0 -5.6442562654e+01 +7.3507387333e+02 +4.2723029291e+02 8.7524001583e+02 2.0000000000e+02 0.0000e+00 1.0000e+00
      556  1    1    2    0    0 +5.6442562654e+01 -7.3507387333e+02 +2.4992914257e+02 8.0373126008e+02 2.0000000000e+02 0.0000e+00 -1.0000e+00
<mgrwt>
<rscale>  0 0.15363592E+04</rscale>
<asrwt>0</asrwt>
<pdfrwt beam="2">  1        1 0.77062450E-01 0.15363592E+04</pdfrwt>
<pdfrwt beam="1">  1       -1 0.18124082E+00 0.15363592E+04</pdfrwt>
<totfact> 0.86928189E+00</totfact>
</mgrwt>
</event>
<event>
 4      1 +1.5204000e-02 7.79145300e+02 7.81860800e-03 9.59070400e-02
       -2 -1    0    0    0  501 -0.0000000000e+00 +0.0000000000e+00 +1.5815671496e+02 1.5815671496e+02 0.0000000000e+00 0.0000e+00 1.0000e+00
        2 -1    0    0  501    0 +0.0000000000e+00 -0.0000000000e+00 -9.5959784067e+02 9.5959784067e+02 0.0000000000e+00 0.0000e+00 -1.0000e+00
     -556  1    1    2    0    0 +2.8155929055e+01 +3.3105118531e+02 -4.5399776326e+02 5.9707756002e+02 2.0000000000e+02 0.0000e+00 -1.0000e+00
      556  1    1    2    0    0 -2.8155929055e+01 -3.3105118531e+02 -3.4744336245e+02 5.2067699560e+02 2.0000000000e+02 0.0000e+00 1.0000e+00
<mgrwt>
<rscale>  0 0.77914528E+03</rscale>
<asrwt>0</asrwt>
<pdfrwt beam="2">  1        2 0.14763044E+00 0.77914528E+03</pdfrwt>
<pdfrwt beam="1">  1       -2 0.24331802E-01 0.77914528E+03</pdfrwt>
<totfact> 0.40485912E+02</totfact>
</mgrwt>
</event>
<event>
 4      1 +1.5204000e-02 6.21194800e+02 7.81860800e-03 9.86238400e-02
        2 -1    0    0  501    0 +0.0000000000e+00 +0.0000000000e+00 +1.8319964761e+02 1.8319964761e+02 0.0000000000e+00 0.0000e+00 -1.0000e+00
       -2 -1    0    0    0  501 -0.0000000000e+00 -0.0000000000e+00 -5.2658799609e+02 5.2658799609e+02 0.0000000000e+00 0.0000e+00 1.0000e+00
     -556  1    1    2    0    0 -1.8421820390e+02 -3.3205570370e+01 -3.3896867926e+02 4.3581959808e+02 2.0000000000e+02 0.0000e+00 1.0000e+00
      556  1    1    2    0    0 +1.8421820390e+02 +3.3205570370e+01 -4.4196692236e+00 2.7396804563e+02 2.0000000000e+02 0.0000e+00 -1.0000e+00
<mgrwt>
<rscale>  0 0.62119477E+03</rscale>
<asrwt>0</asrwt>
<pdfrwt beam="1">  1        2 0.28184561E-01 0.62119477E+03</pdfrwt>
<pdfrwt beam="2">  1       -2 0.81013538E-01 0.62119477E+03</pdfrwt>
<totfact> 0.25950202E+02</totfact>
</mgrwt>
</event>
<event>
 4      1 +1.5204000e-02 6.09872100e+02 7.81860800e-03 9.88513400e-02
       -1 -1    0    0    0  501 -0.0000000000e+00 +0.0000000000e+00 +2.8222487519e+02 2.8222487519e+02 0.0000000000e+00 0.0000e+00 1.0000e+00
        1 -1    0    0  501    0 +0.0000000000e+00 -0.0000000000e+00 -3.2947482288e+02 3.2947482288e+02 0.0000000000e+00 0.0000e+00 -1.0000e+00
     -556  1    1    2    0    0 -1.3530273390e+01 -3.3409961129e+01 -2.5165335223e+02 3.2346360458e+02 2.0000000000e+02 0.0000e+00 -1.0000e+00
      556  1    1    2    0    0 +1.3530273390e+01 +3.3409961129e+01 +2.0440340455e+02 2.8823609349e+02 2.0000000000e+02 0.0000e+00 1.0000e+00
<mgrwt>
<rscale>  0 0.60987209E+03</rscale>
<asrwt>0</asrwt>
<pdfrwt beam="2">  1        1 0.50688434E-01 0.60987209E+03</pdfrwt>
<pdfrwt beam="1">  1       -1 0.43419212E-01 0.60987209E+03</pdfrwt>
<totfact> 0.41106441E+02</totfact>
</mgrwt>
</event>
<event>
 4      1 +1.5204000e-02 7.26385800e+02 7.81860800e-03 9.67314300e-02
        3 -1    0    0  501    0 +0.0000000000e+00 +0.0000000000e+00 +2.2984466583e+03 2.2984466583e+03 0.0000000000e+00 0.0000e+00 -1.0000e+00
       -3 -1    0    0    0  501 -0.0000000000e+00 -0.0000000000e+00 -5.7390539553e+01 5.7390539553e+01 0.0000000000e+00 0.0000e+00 1.0000e+00
     -556  1    1    2    0    0 -3.5882663532e+01 -6.5596110814e+01 +1.6766541301e+02 2.7148131799e+02 2.0000000000e+02 0.0000e+00 1.0000e+00
      556  1    1    2    0    0 +3.5882663532e+01 +6.5596110814e+01 +2.0733907057e+03 2.0843558799e+03 2.0000000000e+02 0.0000e+00 -1.0000e+00
<mgrwt>
<rscale>  0 0.72638583E+03</rscale>
<asrwt>0</asrwt>
<pdfrwt beam="1">  1        3 0.35360711E+00 0.72638583E+03</pdfrwt>
<pdfrwt beam="2">  1       -3 0.88293156E-02 0.72638583E+03</pdfrwt>
<totfact> 0.51367786E+00</totfact>
</mgrwt>
</event>
<event>
 4      1 +1.5204000e-02 6.80597200e+02 7.81860800e-03 9.75100100e-02
        2 -1    0    0  501    0 +0.0000000000e+00 +0.0000000000e+00 +1.5748568662e+02 1.5748568662e+02 0.0000000000e+00 0.0000e+00 -1.0000e+00
       -2 -1    0    0    0  501 -0.0000000000e+00 -0.0000000000e+00 -7.3532492341e+02 7.3532492341e+02 0.0000000000e+00 0.0000e+00 1.0000e+00
     -556  1    1    2    0    0 -2.2001854103e+02 +5.0203658259e+01 -8.2026007447e+01 3.1250093055e+02 2.0000000000e+02 0.0000e+00 -1.0000e+00
      556  1    1    2    0    0 +2.2001854103e+02 -5.0203658259e+01 -4.9581322934e+02 5.8030967947e+02 2.0000000000e+02 0.0000e+00 1.0000e+00
<mgrwt>
<rscale>  0 0.68059724E+03</rscale>
<asrwt>0</asrwt>
<pdfrwt beam="1">  1        2 0.24228567E-01 0.68059724E+03</pdfrwt>
<pdfrwt beam="2">  1       -2 0.11312691E+00 0.68059724E+03</pdfrwt>
<totfact> 0.14103087E+02</totfact>
</mgrwt>
</event>
<event>
 4      1 +1.5204000e-02 7.07958900e+02 7.81860800e-03 9.70371700e-02
       -2 -1    0    0    0  501 -0.0000000000e+00 +0.0000000000e+00 +3.8070701611e+02 3.8070701611e+02 0.0000000000e+00 0.0000e+00 1.0000e+00
        2 -1    0    0  501    0 +0.0000000000e+00 -0.0000000000e+00 -3.2912832760e+02 3.2912832760e+02 0.0000000000e+00 0.0000e+00 -1.0000e+00
     -556  1    1    2    0    0 -1.3253626908e+02 +1.2398687419e+02 +2.5522516062e+02 3.7158914167e+02 2.0000000000e+02 0.0000e+00 1.0000e+00
      556  1    1    2    0    0 +1.3253626908e+02 -1.2398687419e+02 -2.0364647211e+02 3.3824620204e+02 2.0000000000e+02 0.0000e+00 -1.0000e+00
<mgrwt>
<rscale>  0 0.70795894E+03</rscale>
<asrwt>0</asrwt>
<pdfrwt beam="2">  1        2 0.50635127E-01 0.70795894E+03</pdfrwt>
<pdfrwt beam="1">  1       -2 0.58570310E-01 0.70795894E+03</pdfrwt>
<totfact> 0.27237746E+02</totfact>
</mgrwt>
</event>
<event>
 4      1 +1.5204000e-02 8.19485100e+02 7.81860800e-03 9.53223400e-02
        2 -1    0    0  501    0 +0.0000000000e+00 +0.0000000000e+00 +2.4625966291e+02 2.4625966291e+02 0.0000000000e+00 0.0000e+00 -1.0000e+00
       -2 -1    0    0    0  501 -0.0000000000e+00 -0.0000000000e+00 -6.8175584376e+02 6.8175584376e+02 0.0000000000e+00 0.0000e+00 1.0000e+00
     -556  1    1    2    0    0 -2.8177695282e+01 -1.7882584739e+02 +1.3150610524e+02 3.0011084939e+02 2.0000000000e+02 0.0000e+00 -1.0000e+00
      556  1    1    2    0    0 +2.8177695282e+01 +1.7882584739e+02 -5.6700228609e+02 6.2790465728e+02 2.0000000000e+02 0.0000e+00 1.0000e+00
<mgrwt>
<rscale>  0 0.81948512E+03</rscale>
<asrwt>0</asrwt>
<pdfrwt beam="1">  1        2 0.37886103E-01 0.81948512E+03</pdfrwt>
<pdfrwt beam="2">  1       -2 0.10488551E+00 0.81948512E+03</pdfrwt>
<totfact> 0.10152475E+02</totfact>
</mgrwt>
</event>
<event>
 4      1 +1.5204000e-02 5.44791900e+02 7.81860800e-03 1.00270700e-01
       -1 -1    0    0    0  501 -0.0000000000e+00 +0.0000000000e+00 +5.0719877105e+02 5.0719877105e+02 0.0000000000e+00 0.0000e+00 1.0000e+00
        1 -1    0    0  501    0 +0.0000000000e+00 -0.0000000000e+00 -1.4629287069e+02 1.4629287069e+02 0.0000000000e+00 0.0000e+00 -1.0000e+00
     -556  1    1    2    0    0 -6.6317522731e+01 +1.6009887887e+02 +2.5791199772e+02 3.6952437458e+02 2.0000000000e+02 0.0000e+00 1.0000e+00
      556  1    1    2    0    0 +6.6317522731e+01 -1.6009887887e+02 +1.0299390263e+02 2.8396726716e+02 2.0000000000e+02 0.0000e+00 -1.0000e+00
<mgrwt>
<rscale>  0 0.54479194E+03</rscale>
<asrwt>0</asrwt>
<pdfrwt beam="2">  1        1 0.22506596E-01 0.54479194E+03</pdfrwt>
<pdfrwt beam="1">  1       -1 0.78030579E-01 0.54479194E+03</pdfrwt>
<totfact> 0.37435625E+02</totfact>
</mgrwt>
</event>
<event>
 4      1 +1.5204000e-02 4.86029500e+02 7.81860800e-03 1.01749100e-01
        1 -1    0    0  501    0 +0.0000000000e+00 +0.0000000000e+00 +1.2977249948e+03 1.2977249948e+03 0.0000000000e+00 0.0000e+00 -1.0000e+00
       -1 -1    0    0    0  501 -0.0000000000e+00 -0.0000000000e+00 -4.5507454248e+01 4.5507454248e+01 0.0000000000e+00 0.0000e+00 1.0000e+00
     -556  1    1    2    0    0 -4.6781961989e+00 +3.8963542511e+01 +2.6033926013e+02 3.3063056957e+02 2.0000000000e+02 0.0000e+00 1.0000e+00
      556  1    1    2    0    0 +4.6781961989e+00 -3.8963542511e+01 +9.9187828042e+02 1.0126018795e+03 2.0000000000e+02 0.0000e+00 -1.0000e+00
<mgrwt>
<rscale>  0 0.48602947E+03</rscale>
<asrwt>0</asrwt>
<pdfrwt beam="1">  1        1 0.19964997E+00 0.48602947E+03</pdfrwt>
<pdfrwt beam="2">  1       -1 0.70011478E-02 0.48602947E+03</pdfrwt>
<totfact> 0.10253918E+03</totfact>
</mgrwt>
</event>
<event>
 4      1 +1.5204000e-02 5.31451700e+02 7.81860800e-03 1.00588100e-01
       -1 -1    0    0    0  501 -0.0000000000e+00 +0.0000000000e+00 +8.7787578668e+01 8.7787578668e+01 0.0000000000e+00 0.0000e+00 1.0000e+00
        1 -1    0    0  501    0 +0.0000000000e+00 -0.0000000000e+00 -8.0433061210e+02 8.0433061210e+02 0.0000000000e+00 0.0000e+00 -1.0000e+00
     -556  1    1    2    0    0 +8.7976219382e+01 -1.0107110212e+02 -1.6943300595e+02 2.9438533654e+02 2.0000000000e+02 0.0000e+00 1.0000e+00
      556  1    1    2    0    0 -8.7976219382e+01 +1.0107110212e+02 -5.4711002748e+02 5.9773285423e+02 2.0000000000e+02 0.0000e+00 -1.0000e+00
<mgrwt>
<rscale>  0 0.53145174E+03</rscale>
<asrwt>0</asrwt>
<pdfrwt beam="2">  1        1 0.12374317E+00 0.53145174E+03</pdfrwt>
<pdfrwt beam="1">  1       -1 0.13505782E-01 0.53145174E+03</pdfrwt>
<totfact> 0.86372121E+02</totfact>
</mgrwt>
</event>
<event>
 4      1 +1.5204000e-02 4.65309900e+02 7.81860800e-03 1.02325200e-01
        2 -1    0    0  501    0 +0.0000000000e+00 +0.0000000000e+00 +1.6544848021e+02 1.6544848021e+02 0.0000000000e+00 0.0000e+00 -1.0000e+00
       -2 -1    0    0    0  501 -0.0000000000e+00 -0.0000000000e+00 -3.2716120175e+02 3.2716120175e+02 0.0000000000e+00 0.0000e+00 1.0000e+00
     -556  1    1    2    0    0 -1.1547337240e+02 +2.9430510346e+00 -1.1052864529e+02 2.5604558717e+02 2.0000000000e+02 0.0000e+00 1.0000e+00
      556  1    1    2    0    0 +1.1547337240e+02 -2.9430510346e+00 -5.1184076250e+01 2.3656409479e+02 2.0000000000e+02 0.0000e+00 -1.0000e+00
<mgrwt>
<rscale>  0 0.46530989E+03</rscale>
<asrwt>0</asrwt>
<pdfrwt beam="1">  1        2 0.25453613E-01 0.46530989E+03</pdfrwt>
<pdfrwt beam="2">  1       -2 0.50332492E-01 0.46530989E+03</pdfrwt>
<totfact> 0.80437953E+02</totfact>
</mgrwt>
</event>
<event>
 4      1 +1.5204000e-02 4.16729100e+02 7.81860800e-03 1.03813600e-01
       -2 -1    0    0    0  501 -0.0000000000e+00 +0.0000000000e+00 +2.6109620484e+01 2.6109620484e+01 0.0000000000e+00 0.0000e+00 1.0000e+00
        2 -1    0    0  501    0 +0.0000000000e+00 -0.0000000000e+00 -1.6628267907e+03 1.6628267907e+03 0.0000000000e+00 0.0000e+00 -1.0000e+00
     -556  1    1    2    0    0 +3.0013653225e+01 -3.1533474009e+01 -9.7639842895e+02 9.9762170757e+02 2.0000000000e+02 0.0000e+00 -1.0000e+00
      556  1    1    2    0    0 -3.0013653225e+01 +3.1533474009e+01 -6.6031874127e+02 6.9131470362e+02 2.0000000000e+02 0.0000e+00 1.0000e+00
<mgrwt>
<rscale>  0 0.41672906E+03</rscale>
<asrwt>0</asrwt>
<pdfrwt beam="2">  1        2 0.25581944E+00 0.41672906E+03</pdfrwt>
<pdfrwt beam="1">  1       -2 0.40168657E-02 0.41672906E+03</pdfrwt>
<totfact> 0.30464699E+03</totfact>
</mgrwt>
</event>
<event>
 4      1 +1.5204000e-02 6.78512100e+02 7.81860800e-03 9.75470200e-02
        2 -1    0    0  501    0 +0.0000000000e+00 +0.0000000000e+00 +1.2378798377e+03 1.2378798377e+03 0.0000000000e+00 0.0000e+00 -1.0000e+00
       -2 -1    0    0    0  501 -0.0000000000e+00 -0.0000000000e+00 -9.2977240095e+01 9.2977240095e+01 0.0000000000e+00 0.0000e+00 1.0000e+00
     -556  1    1    2    0    0 +1.2786543019e+02 +1.4262641448e+02 +9.5682638761e+02 9.9609668124e+02 2.0000000000e+02 0.0000e+00 -1.0000e+00
      556  1    1    2    0    0 -1.2786543019e+02 -1.4262641448e+02 +1.8807621003e+02 3.3476039659e+02 2.0000000000e+02 0.0000e+00 1.0000e+00
<mgrwt>
<rscale>  0 0.67851205E+03</rscale>
<asrwt>0</asrwt>
<pdfrwt beam="1">  1        2 0.19044304E+00 0.67851205E+03</pdfrwt>
<pdfrwt beam="2">  1       -2 0.14304192E-01 0.67851205E+03</pdfrwt>
<totfact> 0.68995728E+02</totfact>
</mgrwt>
</event>
<event>
 4      1 +1.5204000e-02 1.24140000e+03 7.81860800e-03 9.07737200e-02
       -2 -1    0    0    0  501 -0.0000000000e+00 +0.0000000000e+00 +4.3450108674e+02 4.3450108674e+02 0.0000000000e+00 0.0000e+00 1.0000e+00
        2 -1    0    0  501    0 +0.0000000000e+00 -0.0000000000e+00 -8.8669122104e+02 8.8669122104e+02 0.0000000000e+00 0.0000e+00 -1.0000e+00
     -556  1    1    2    0    0 +4.3203100256e+02 -1.6722495309e+02 +1.5859824808e+02 5.2893135320e+02 2.0000000000e+02 0.0000e+00 1.0000e+00
      556  1    1    2    0    0 -4.3203100256e+02 +1.6722495309e+02 -6.1078838237e+02 7.9226095458e+02 2.0000000000e+02 0.0000e+00 -1.0000e+00
<mgrwt>
<rscale>  0 0.12413997E+04</rscale>
<asrwt>0</asrwt>
<pdfrwt beam="2">  1        2 0.13641403E+00 0.12413997E+04</pdfrwt>
<pdfrwt beam="1">  1       -2 0.66846322E-01 0.12413997E+04</pdfrwt>
<totfact> 0.60566314E+01</totfact>
</mgrwt>
</event>
<event>
 4      1 +1.5204000e-02 5.81908500e+02 7.81860800e-03 9.94366800e-02
        1 -1    0    0  501    0 +0.0000000000e+00 +0.0000000000e+00 +2.5968613507e+03 2.5968613507e+03 0.0000000000e+00 0.0000e+00 -1.0000e+00
       -1 -1    0    0    0  501 -0.0000000000e+00 -0.0000000000e+00 -3.2598725284e+01 3.2598725284e+01 0.0000000000e+00 0.0000e+00 1.0000e+00
     -556  1    1    2    0    0 +1.1105793693e+02 +3.3734561732e+01 +4.8419680429e+02 5.3658031206e+02 2.0000000000e+02 0.0000e+00 1.0000e+00
      556  1    1    2    0    0 -1.1105793693e+02 -3.3734561732e+01 +2.0800658211e+03 2.0928797639e+03 2.0000000000e+02 0.0000e+00 -1.0000e+00
<mgrwt>
<rscale>  0 0.58190848E+03</rscale>
<asrwt>0</asrwt>
<pdfrwt beam="1">  1        1 0.39951697E+00 0.58190848E+03</pdfrwt>
<pdfrwt beam="2">  1       -1 0.50151906E-02 0.58190848E+03</pdfrwt>
<totfact> 0.22792047E+02</totfact>
</mgrwt>
</event>
<event>
 4      1 +1.5204000e-02 6.94554000e+02 7.81860800e-03 9.72659100e-02
        2 -1    0    0  501    0 +0.0000000000e+00 +0.0000000000e+00 +1.6713384928e+03 1.6713384928e+03 0.0000000000e+00 0.0000e+00 -1.0000e+00
       -2 -1    0    0    0  501 -0.0000000000e+00 -0.0000000000e+00 -7.2158516521e+01 7.2158516521e+01 0.0000000000e+00 0.0000e+00 1.0000e+00
     -556  1    1    2    0    0 +1.9131929976e+02 +6.5497832935e+01 +2.9937619311e+02 4.1293963915e+02 2.0000000000e+02 0.0000e+00 1.0000e+00
      556  1    1    2    0    0 -1.9131929976e+02 -6.5497832935e+01 +1.2998037832e+03 1.3305573702e+03 2.0000000000e+02 0.0000e+00 -1.0000e+00
<mgrwt>
<rscale>  0 0.69455398E+03</rscale>
<asrwt>0</asrwt>
<pdfrwt beam="1">  1        2 0.25712897E+00 0.69455398E+03</pdfrwt>
<pdfrwt beam="2">  1       -2 0.11101311E-01 0.69455398E+03</pdfrwt>
<totfact> 0.59989086E+02</totfact>
</mgrwt>
</event>
<event>
 4      1 +1.5204000e-02 7.36786900e+02 7.81860800e-03 9.65631100e-02
       -2 -1    0    0    0  501 -0.0000000000e+00 +0.0000000000e+00 +3.6147872591e+02 3.6147872591e+02 0.0000000000e+00 0.0000e+00 1.0000e+00
        2 -1    0    0  501    0 +0.0000000000e+00 -0.0000000000e+00 -3.7544048859e+02 3.7544048859e+02 0.0000000000e+00 0.0000e+00 -1.0000e+00
     -556  1    1    2    0    0 -2.5269590387e+02 -1.5232692435e+02 -1.0003003848e+02 3.7022252810e+02 2.0000000000e+02 0.0000e+00 -1.0000e+00
      556  1    1    2    0    0 +2.5269590387e+02 +1.5232692435e+02 +8.6068275797e+01 3.6669668640e+02 2.0000000000e+02 0.0000e+00 1.0000e+00
<mgrwt>
<rscale>  0 0.73678694E+03</rscale>
<asrwt>0</asrwt>
<pdfrwt beam="2">  1        2 0.57760075E-01 0.73678694E+03</pdfrwt>
<pdfrwt beam="1">  1       -2 0.55612112E-01 0.73678694E+03</pdfrwt>
<totfact> 0.26181322E+02</totfact>
</mgrwt>
</event>
<event>
 4      1 +1.5204000e-02 4.67067600e+02 7.81860800e-03 1.02275100e-01
        1 -1    0    0  501    0 +0.0000000000e+00 +0.0000000000e+00 +2.3850204078e+03 2.3850204078e+03 0.0000000000e+00 0.0000e+00 -1.0000e+00
       -1 -1    0    0    0  501 -0.0000000000e+00 -0.0000000000e+00 -2.2866909151e+01 2.2866909151e+01 0.0000000000e+00 0.0000e+00 1.0000e+00
     -556  1    1    2    0    0 -4.7639817648e+01 -9.4347387132e+01 +8.8193156114e+02 9.1048023604e+02 2.0000000000e+02 0.0000e+00 1.0000e+00
      556  1    1    2    0    0 +4.7639817648e+01 +9.4347387132e+01 +1.4802219376e+03 1.4974070810e+03 2.0000000000e+02 0.0000e+00 -1.0000e+00
<mgrwt>
<rscale>  0 0.46706764E+03</rscale>
<asrwt>0</asrwt>
<pdfrwt beam="1">  1        1 0.36692602E+00 0.46706764E+03</pdfrwt>
<pdfrwt beam="2">  1       -1 0.35179879E-02 0.46706764E+03</pdfrwt>
<totfact> 0.54933161E+02</totfact>
</mgrwt>
</event>
<event>
 4      1 +1.5204000e-02 6.21565000e+02 7.81860800e-03 9.86164900e-02
        2 -1    0    0  501    0 +0.0000000000e+00 +0.0000000000e+00 +2.2485124247e+03 2.2485124247e+03 0.0000000000e+00 0.0000e+00 -1.0000e+00
       -2 -1    0    0    0  501 -0.0000000000e+00 -0.0000000000e+00 -4.2955402205e+01 4.2955402205e+01 0.0000000000e+00 0.0000e+00 1.0000e+00
     -556  1    1    2    0    0 +1.1565709152e+02 +8.3737510360e+01 +1.8041770372e+03 1.8208358836e+03 2.0000000000e+02 0.0000e+00 -1.0000e+00
      556  1    1    2    0    0 -1.1565709152e+02 -8.3737510360e+01 +4.0137998529e+02 4.7063194330e+02 2.0000000000e+02 0.0000e+00 1.0000e+00
<mgrwt>
<rscale>  0 0.62156498E+03</rscale>
<asrwt>0</asrwt>
<pdfrwt beam="1">  1        2 0.34592490E+00 0.62156498E+03</pdfrwt>
<pdfrwt beam="2">  1       -2 0.66085252E-02 0.62156498E+03</pdfrwt>
<totfact> 0.67252526E+02</totfact>
</mgrwt>
</event>
<event>
 4      1 +1.5204000e-02 7.20221000e+02 7.81860800e-03 9.68326300e-02
        1 -1    0    0  501    0 +0.0000000000e+00 +0.0000000000e+00 +1.4448890268e+03 1.4448890268e+03 0.0000000000e+00 0.0000e+00 -1.0000e+00
       -1 -1    0    0    0  501 -0.0000000000e+00 -0.0000000000e+00 -8.9750549366e+01 8.9750549366e+01 0.0000000000e+00 0.0000e+00 1.0000e+00
     -556  1    1    2    0    0 +2.3440271394e+02 +1.4704495396e+02 +4.3357071126e+02 5.5186086330e+02 2.0000000000e+02 0.0000e+00 -1.0000e+00
      556  1    1    2    0    0 -2.3440271394e+02 -1.4704495396e+02 +9.2156776614e+02 9.8277871282e+02 2.0000000000e+02 0.0000e+00 1.0000e+00
<mgrwt>
<rscale>  0 0.72022103E+03</rscale>
<asrwt>0</asrwt>
<pdfrwt beam="1">  1        1 0.22229060E+00 0.72022103E+03</pdfrwt>
<pdfrwt beam="2">  1       -1 0.13807778E-01 0.72022103E+03</pdfrwt>
<totfact> 0.27406962E+02</totfact>
</mgrwt>
</event>
<event>
 4      1 +1.5204000e-02 5.11575600e+02 7.81860800e-03 1.01080100e-01
        2 -1    0    0  501    0 +0.0000000000e+00 +0.0000000000e+00 +5.9746289933e+02 5.9746289933e+02 0.0000000000e+00 0.0000e+00 -1.0000e+00
       -2 -1    0    0    0  501 -0.0000000000e+00 -0.0000000000e+00 -1.0950871360e+02 1.0950871360e+02 0.0000000000e+00 0.0000e+00 1.0000e+00
     -556  1    1    2    0    0 +1.0961747879e+02 -5.7496412270e+01 +1.0505463494e+02 2.5760105862e+02 2.0000000000e+02 0.0000e+00 1.0000e+00
      556  1    1    2    0    0 -1.0961747879e+02 +5.7496412270e+01 +3.8289955079e+02 4.4937055431e+02 2.0000000000e+02 0.0000e+00 -1.0000e+00
<mgrwt>
<rscale>  0 0.51157558E+03</rscale>
<asrwt>0</asrwt>
<pdfrwt beam="1">  1        2 0.91917367E-01 0.51157558E+03</pdfrwt>
<pdfrwt beam="2">  1       -2 0.16847495E-01 0.51157558E+03</pdfrwt>
<totfact> 0.14335700E+03</totfact>
</mgrwt>
</event>
<event>
 4      1 +1.5204000e-02 6.28136900e+02 7.81860800e-03 9.84869100e-02
        2 -1    0    0  501    0 +0.0000000000e+00 +0.0000000000e+00 +1.0625889491e+03 1.0625889491e+03 0.0000000000e+00 0.0000e+00 -1.0000e+00
       -2 -1    0    0    0  501 -0.0000000000e+00 -0.0000000000e+00 -9.2828936114e+01 9.2828936114e+01 0.0000000000e+00 0.0000e+00 1.0000e+00
     -556  1    1    2    0    0 -2.3030650408e+02 +7.4732735011e+01 +4.9149537361e+02 5.8326132204e+02 2.0000000000e+02 0.0000e+00 -1.0000e+00
      556  1    1    2    0    0 +2.3030650408e+02 -7.4732735011e+01 +4.7826463936e+02 5.7215656316e+02 2.0000000000e+02 0.0000e+00 1.0000e+00
<mgrwt>
<rscale>  0 0.62813693E+03</rscale>
<asrwt>0</asrwt>
<pdfrwt beam="1">  1        2 0.16347521E+00 0.62813693E+03</pdfrwt>
<pdfrwt beam="2">  1       -2 0.14281376E-01 0.62813693E+03</pdfrwt>
<totfact> 0.88267799E+02</totfact>
</mgrwt>
</event>
<event>
 4      1 +1.5204000e-02 4.68683300e+02 7.81860800e-03 1.02229200e-01
       -2 -1    0    0    0  501 -0.0000000000e+00 +0.0000000000e+00 +2.0010897354e+02 2.0010897354e+02 0.0000000000e+00 0.0000e+00 1.0000e+00
        2 -1    0    0  501    0 +0.0000000000e+00 -0.0000000000e+00 -2.7443053814e+02 2.7443053814e+02 0.0000000000e+00 0.0000e+00 -1.0000e+00
     -556  1    1    2    0    0 +2.1370114138e+01 -9.6644521415e+01 +3.5281574958e+01 2.2592395807e+02 2.0000000000e+02 0.0000e+00 1.0000e+00
      556  1    1    2    0    0 -2.1370114138e+01 +9.6644521415e+01 -1.0960313956e+02 2.4861555361e+02 2.0000000000e+02 0.0000e+00 -1.0000e+00
<mgrwt>
<rscale>  0 0.46868332E+03</rscale>
<asrwt>0</asrwt>
<pdfrwt beam="2">  1        2 0.42220083E-01 0.46868332E+03</pdfrwt>
<pdfrwt beam="1">  1       -2 0.30785996E-01 0.46868332E+03</pdfrwt>
<totfact> 0.11829680E+03</totfact>
</mgrwt>
</event>
<event>
 4      1 +1.5204000e-02 1.19355400e+03 7.81860800e-03 9.11851800e-02
        1 -1    0    0  501    0 +0.0000000000e+00 +0.0000000000e+00 +7.3761211941e+02 7.3761211941e+02 0.0000000000e+00 0.0000e+00 -1.0000e+00
       -1 -1    0    0    0  501 -0.0000000000e+00 -0.0000000000e+00 -4.8283198923e+02 4.8283198923e+02 0.0000000000e+00 0.0000e+00 1.0000e+00
     -556  1    1    2    0    0 +5.4648612257e+02 +5.7665232067e+00 -7.7324516329e+00 5.8201385358e+02 2.0000000000e+02 0.0000e+00 1.0000e+00
      556  1    1    2    0    0 -5.4648612257e+02 -5.7665232067e+00 +2.6251258182e+02 6.3843025505e+02 2.0000000000e+02 0.0000e+00 -1.0000e+00
<mgrwt>
<rscale>  0 0.11935539E+04</rscale>
<asrwt>0</asrwt>
<pdfrwt beam="1">  1        1 0.11347879E+00 0.11935539E+04</pdfrwt>
<pdfrwt beam="2">  1       -1 0.74281844E-01 0.11935539E+04</pdfrwt>
<totfact> 0.45423766E+01</totfact>
</mgrwt>
</event>
<event>
 4      1 +1.5204000e-02 8.50657200e+02 7.81860800e-03 9.48945500e-02
       -1 -1    0    0    0  501 -0.0000000000e+00 +0.0000000000e+00 +1.3361811534e+02 1.3361811534e+02 0.0000000000e+00 0.0000e+00 1.0000e+00
        1 -1    0    0  501    0 +0.0000000000e+00 -0.0000000000e+00 -1.3538913335e+03 1.3538913335e+03 0.0000000000e+00 0.0000e+00 -1.0000e+00
     -556  1    1    2    0    0 +1.9252094513e+02 -1.8328200160e+01 -4.7556868682e+01 2.8224438523e+02 2.0000000000e+02 0.0000e+00 1.0000e+00
      556  1    1    2    0    0 -1.9252094513e+02 +1.8328200160e+01 -1.1727163495e+03 1.2052650637e+03 2.0000000000e+02 0.0000e+00 -1.0000e+00
<mgrwt>
<rscale>  0 0.85065718E+03</rscale>
<asrwt>0</asrwt>
<pdfrwt beam="2">  1        1 0.20829098E+00 0.85065718E+03</pdfrwt>
<pdfrwt beam="1">  1       -1 0.20556632E-01 0.85065718E+03</pdfrwt>
<totfact> 0.16338488E+02</totfact>
</mgrwt>
</event>
<event>
 4      1 +1.5204000e-02 4.77671800e+02 7.81860800e-03 1.01977700e-01
        1 -1    0    0  501    0 +0.0000000000e+00 +0.0000000000e+00 +1.7672942008e+03 1.7672942008e+03 0.0000000000e+00 0.0000e+00 -1.0000e+00
       -1 -1    0    0    0  501 -0.0000000000e+00 -0.0000000000e+00 -3.2276787867e+01 3.2276787867e+01 0.0000000000e+00 0.0000e+00 1.0000e+00
     -556  1    1    2    0    0 +1.0444324623e+02 +6.6544239111e+01 +7.1189938368e+02 7.4975813429e+02 2.0000000000e+02 0.0000e+00 1.0000e+00
      556  1    1    2    0    0 -1.0444324623e+02 -6.6544239111e+01 +1.0231180292e+03 1.0498128543e+03 2.0000000000e+02 0.0000e+00 -1.0000e+00
<mgrwt>
<rscale>  0 0.47767177E+03</rscale>
<asrwt>0</asrwt>
<pdfrwt beam="1">  1        1 0.27189134E+00 0.47767177E+03</pdfrwt>
<pdfrwt beam="2">  1       -1 0.49656611E-02 0.47767177E+03</pdfrwt>
<totfact> 0.83623745E+02</totfact>
</mgrwt>
</event>
<event>
 4      1 +1.5204000e-02 1.16396600e+03 7.81860800e-03 9.14499500e-02
        2 -1    0    0  501    0 +0.0000000000e+00 +0.0000000000e+00 +1.2498655437e+03 1.2498655437e+03 0.0000000000e+00 0.0000e+00 -1.0000e+00
       -2 -1    0    0    0  501 -0.0000000000e+00 -0.0000000000e+00 -2.7099246414e+02 2.7099246414e+02 0.0000000000e+00 0.0000e+00 1.0000e+00
     -556  1    1    2    0    0 +4.4864821553e+02 -3.0480674427e+02 +5.7720165710e+02 8.1691745336e+02 2.0000000000e+02 0.0000e+00 -1.0000e+00
      556  1    1    2    0    0 -4.4864821553e+02 +3.0480674427e+02 +4.0167142249e+02 7.0394055451e+02 2.0000000000e+02 0.0000e+00 1.0000e+00
<mgrwt>
<rscale>  0 0.11639659E+04</rscale>
<asrwt>0</asrwt>
<pdfrwt beam="1">  1        2 0.19228700E+00 0.11639659E+04</pdfrwt>
<pdfrwt beam="2">  1       -2 0.41691149E-01 0.11639659E+04</pdfrwt>
<totfact> 0.95320769E+01</totfact>
</mgrwt>
</event>
<event>
 4      1 +1.5204000e-02 5.69637700e+02 7.81860800e-03 9.97048100e-02
        1 -1    0    0  501    0 +0.0000000000e+00 +0.0000000000e+00 +6.9144359153e+02 6.9144359153e+02 0.0000000000e+00 0.0000e+00 -1.0000e+00
       -1 -1    0    0    0  501 -0.0000000000e+00 -0.0000000000e+00 -1.1732232198e+02 1.1732232198e+02 0.0000000000e+00 0.0000e+00 1.0000e+00
     -556  1    1    2    0    0 +1.1473847741e+02 -1.5617787835e+02 +2.0228454411e+02 3.4420267963e+02 2.0000000000e+02 0.0000e+00 1.0000e+00
      556  1    1    2    0    0 -1.1473847741e+02 +1.5617787835e+02 +3.7183672545e+02 4.6456323388e+02 2.0000000000e+02 0.0000e+00 -1.0000e+00
<mgrwt>
<rscale>  0 0.56963767E+03</rscale>
<asrwt>0</asrwt>
<pdfrwt beam="1">  1        1 0.10637593E+00 0.56963767E+03</pdfrwt>
<pdfrwt beam="2">  1       -1 0.18049588E-01 0.56963767E+03</pdfrwt>
<totfact> 0.67991220E+02</totfact>
</mgrwt>
</event>
<event>
 4      1 +1.5204000e-02 6.18942800e+02 7.81860800e-03 9.86686700e-02
        1 -1    0    0  501    0 +0.0000000000e+00 +0.0000000000e+00 +1.6714562344e+02 1.6714562344e+02 0.0000000000e+00 0.0000e+00 1.0000e+00
       -1 -1    0    0    0  501 -0.0000000000e+00 -0.0000000000e+00 -5.7298862195e+02 5.7298862195e+02 0.0000000000e+00 0.0000e+00 -1.0000e+00
     -556  1    1    2    0    0 +1.5831857218e+02 -1.4975542193e+02 -3.1174021296e+02 4.2973645071e+02 2.0000000000e+02 0.0000e+00 -1.0000e+00
      556  1    1    2    0    0 -1.5831857218e+02 +1.4975542193e+02 -9.4102785560e+01 3.1039779468e+02 2.0000000000e+02 0.0000e+00 1.0000e+00
<mgrwt>
<rscale>  0 0.61894278E+03</rscale>
<asrwt>0</asrwt>
<pdfrwt beam="1">  1        1 0.25714711E-01 0.61894278E+03</pdfrwt>
<pdfrwt beam="2">  1       -1 0.88152097E-01 0.61894278E+03</pdfrwt>
<totfact> 0.24181980E+02</totfact>
</mgrwt>
</event>
<event>
 4      1 +1.5204000e-02 7.29642300e+02 7.81860800e-03 9.66784100e-02
        2 -1    0    0  501    0 +0.0000000000e+00 +0.0000000000e+00 +3.2879679388e+03 3.2879679388e+03 0.0000000000e+00 0.0000e+00 -1.0000e+00
       -2 -1    0    0    0  501 -0.0000000000e+00 -0.0000000000e+00 -4.0479249363e+01 4.0479249363e+01 0.0000000000e+00 0.0000e+00 1.0000e+00
     -556  1    1    2    0    0 +1.1137600431e+02 +2.8285616877e+02 +1.5045919832e+03 1.5479693997e+03 2.0000000000e+02 0.0000e+00 1.0000e+00
      556  1    1    2    0    0 -1.1137600431e+02 -2.8285616877e+02 +1.7428967062e+03 1.7804777885e+03 2.0000000000e+02 0.0000e+00 -1.0000e+00
<mgrwt>
<rscale>  0 0.72964231E+03</rscale>
<asrwt>0</asrwt>
<pdfrwt beam="1">  1        2 0.50584101E+00 0.72964231E+03</pdfrwt>
<pdfrwt beam="2">  1       -2 0.62275794E-02 0.72964231E+03</pdfrwt>
<totfact> 0.17770588E+02</totfact>
</mgrwt>
</event>
<event>
 4      1 +1.5204000e-02 8.95819000e+02 7.81860800e-03 9.43082300e-02
        2 -1    0    0  501    0 +0.0000000000e+00 +0.0000000000e+00 +3.7086901822e+03 3.7086901822e+03 0.0000000000e+00 0.0000e+00 -1.0000e+00
       -2 -1    0    0    0  501 -0.0000000000e+00 -0.0000000000e+00 -5.4095355379e+01 5.4095355379e+01 0.0000000000e+00 0.0000e+00 1.0000e+00
     -556  1    1    2    0    0 -3.1080637966e+02 -8.9403676248e+00 +7.6515293833e+02 8.4978794699e+02 2.0000000000e+02 0.0000e+00 1.0000e+00
      556  1    1    2    0    0 +3.1080637966e+02 +8.9403676248e+00 +2.8894418885e+03 2.9129975906e+03 2.0000000000e+02 0.0000e+00 -1.0000e+00
<mgrwt>
<rscale>  0 0.89581898E+03</rscale>
<asrwt>0</asrwt>
<pdfrwt beam="1">  1        2 0.57056752E+00 0.89581898E+03</pdfrwt>
<pdfrwt beam="2">  1       -2 0.83223652E-02 0.89581898E+03</pdfrwt>
<totfact> 0.56499780E+01</totfact>
</mgrwt>
</event>
<event>
 4      1 +1.5204000e-02 7.09086600e+02 7.81860800e-03 9.70181800e-02
        2 -1    0    0  501    0 +0.0000000000e+00 +0.0000000000e+00 +1.2904208260e+03 1.2904208260e+03 0.0000000000e+00 0.0000e+00 -1.0000e+00
       -2 -1    0    0    0  501 -0.0000000000e+00 -0.0000000000e+00 -9.7410816375e+01 9.7410816375e+01 0.0000000000e+00 0.0000e+00 1.0000e+00
     -556  1    1    2    0    0 +2.7109407644e+02 +7.0848568613e+01 +4.3055216411e+02 5.5125918040e+02 2.0000000000e+02 0.0000e+00 1.0000e+00
      556  1    1    2    0    0 -2.7109407644e+02 -7.0848568613e+01 +7.6245784553e+02 8.3657246199e+02 2.0000000000e+02 0.0000e+00 -1.0000e+00
<mgrwt>
<rscale>  0 0.70908658E+03</rscale>
<asrwt>0</asrwt>
<pdfrwt beam="1">  1        2 0.19852627E+00 0.70908658E+03</pdfrwt>
<pdfrwt beam="2">  1       -2 0.14986280E-01 0.70908658E+03</pdfrwt>
<totfact> 0.59382647E+02</totfact>
</mgrwt>
</event>
<event>
 4      1 +1.5204000e-02 6.62826700e+02 7.81860800e-03 9.78300400e-02
        1 -1    0    0  501    0 +0.0000000000e+00 +0.0000000000e+00 +1.3304928549e+03 1.3304928549e+03 0.0000000000e+00 0.0000e+00 -1.0000e+00
       -1 -1    0    0    0  501 -0.0000000000e+00 -0.0000000000e+00 -8.2551962554e+01 8.2551962554e+01 0.0000000000e+00 0.0000e+00 1.0000e+00
     -556  1    1    2    0    0 +2.3624022741e+02 +6.4206538875e+01 +8.3611727374e+02 8.9388143516e+02 2.0000000000e+02 0.0000e+00 -1.0000e+00
      556  1    1    2    0    0 -2.3624022741e+02 -6.4206538875e+01 +4.1182361864e+02 5.1916338233e+02 2.0000000000e+02 0.0000e+00 1.0000e+00
<mgrwt>
<rscale>  0 0.66282666E+03</rscale>
<asrwt>0</asrwt>
<pdfrwt beam="1">  1        1 0.20469119E+00 0.66282666E+03</pdfrwt>
<pdfrwt beam="2">  1       -1 0.12700303E-01 0.66282666E+03</pdfrwt>
<totfact> 0.37788742E+02</totfact>
</mgrwt>
</event>
<event>
 4      1 +1.5204000e-02 1.12398400e+03 7.81860800e-03 9.18212600e-02
        2 -1    0    0  501    0 +0.0000000000e+00 +0.0000000000e+00 +2.1884562160e+03 2.1884562160e+03 0.0000000000e+00 0.0000e+00 -1.0000e+00
       -2 -1    0    0    0  501 -0.0000000000e+00 -0.0000000000e+00 -1.4431866556e+02 1.4431866556e+02 0.0000000000e+00 0.0000e+00 1.0000e+00
     -556  1    1    2    0    0 +4.5122513434e+02 -2.3453443841e+02 +1.2944559593e+03 1.4050717972e+03 2.0000000000e+02 0.0000e+00 1.0000e+00
      556  1    1    2    0    0 -4.5122513434e+02 +2.3453443841e+02 +7.4968159109e+02 9.2770308433e+02 2.0000000000e+02 0.0000e+00 -1.0000e+00
<mgrwt>
<rscale>  0 0.11239841E+04</rscale>
<asrwt>0</asrwt>
<pdfrwt beam="1">  1        2 0.33668555E+00 0.11239841E+04</pdfrwt>
<pdfrwt beam="2">  1       -2 0.22202873E-01 0.11239841E+04</pdfrwt>
<totfact> 0.92664305E+01</totfact>
</mgrwt>
</event>
<event>
 4      1 +1.5204000e-02 7.03949500e+02 7.81860800e-03 9.71050200e-02
       -1 -1    0    0    0  501 -0.0000000000e+00 +0.0000000000e+00 +1.0589092991e+03 1.0589092991e+03 0.0000000000e+00 0.0000e+00 1.0000e+00
        1 -1    0    0  501    0 +0.0000000000e+00 -0.0000000000e+00 -1.1699417668e+02 1.1699417668e+02 0.0000000000e+00 0.0000e+00 -1.0000e+00
     -556  1    1    2    0    0 +2.2840447484e+02 +4.7121922692e+01 +1.8406443478e+02 3.5814633305e+02 2.0000000000e+02 0.0000e+00 -1.0000e+00
      556  1    1    2    0    0 -2.2840447484e+02 -4.7121922692e+01 +7.5785068769e+02 8.1775714278e+02 2.0000000000e+02 0.0000e+00 1.0000e+00
<mgrwt>
<rscale>  0 0.70394949E+03</rscale>
<asrwt>0</asrwt>
<pdfrwt beam="2">  1        1 0.17999105E-01 0.70394949E+03</pdfrwt>
<pdfrwt beam="1">  1       -1 0.16290912E+00 0.70394949E+03</pdfrwt>
<totfact> 0.85626963E+01</totfact>
</mgrwt>
</event>
<event>
 4      1 +1.5204000e-02 6.21389900e+02 7.81860800e-03 9.86199600e-02
        1 -1    0    0  501    0 +0.0000000000e+00 +0.0000000000e+00 +8.2145075386e+02 8.2145075386e+02 0.0000000000e+00 0.0000e+00 -1.0000e+00
       -1 -1    0    0    0  501 -0.0000000000e+00 -0.0000000000e+00 -1.1751324784e+02 1.1751324784e+02 0.0000000000e+00 0.0000e+00 1.0000e+00
     -556  1    1    2    0    0 -9.4730757324e+00 +1.3276769106e+01 +7.1039946708e+02 7.3819605430e+02 2.0000000000e+02 0.0000e+00 -1.0000e+00
      556  1    1    2    0    0 +9.4730757324e+00 -1.3276769106e+01 -6.4619610564e+00 2.0076794740e+02 2.0000000000e+02 0.0000e+00 1.0000e+00
<mgrwt>
<rscale>  0 0.62138988E+03</rscale>
<asrwt>0</asrwt>
<pdfrwt beam="1">  1        1 0.12637704E+00 0.62138988E+03</pdfrwt>
<pdfrwt beam="2">  1       -1 0.18078962E-01 0.62138988E+03</pdfrwt>
<totfact> 0.51855594E+02</totfact>
</mgrwt>
</event>
<event>
 4      1 +1.5204000e-02 4.93289200e+02 7.81860800e-03 1.01554600e-01
       -2 -1    0    0    0  501 -0.0000000000e+00 +0.0000000000e+00 +3.3486430180e+02 3.3486430180e+02 0.0000000000e+00 0.0000e+00 1.0000e+00
        2 -1    0    0  501    0 +0.0000000000e+00 -0.0000000000e+00 -1.8166630840e+02 1.8166630840e+02 0.0000000000e+00 0.0000e+00 -1.0000e+00
     -556  1    1    2    0    0 +6.9069284293e+01 -4.1375350570e+01 +2.0203917890e+02 2.9546965238e+02 2.0000000000e+02 0.0000e+00 1.0000e+00
      556  1    1    2    0    0 -6.9069284293e+01 +4.1375350570e+01 -4.8841185507e+01 2.2106095781e+02 2.0000000000e+02 0.0000e+00 -1.0000e+00
<mgrwt>
<rscale>  0 0.49328921E+03</rscale>
<asrwt>0</asrwt>
<pdfrwt beam="2">  1        2 0.27948663E-01 0.49328921E+03</pdfrwt>
<pdfrwt beam="1">  1       -2 0.51517585E-01 0.49328921E+03</pdfrwt>
<totfact> 0.69038253E+02</totfact>
</mgrwt>
</event>
<event>
 4      1 +1.5204000e-02 4.70325600e+02 7.81860800e-03 1.02182800e-01
        2 -1    0    0  501    0 +0.0000000000e+00 +0.0000000000e+00 +1.2524540408e+03 1.2524540408e+03 0.0000000000e+00 0.0000e+00 -1.0000e+00
       -2 -1    0    0    0  501 -0.0000000000e+00 -0.0000000000e+00 -4.4154551881e+01 4.4154551881e+01 0.0000000000e+00 0.0000e+00 1.0000e+00
     -556  1    1    2    0    0 +2.6189627667e+01 -4.2099407325e+01 +9.1657663627e+02 9.3945249313e+02 2.0000000000e+02 0.0000e+00 -1.0000e+00
      556  1    1    2    0    0 -2.6189627667e+01 +4.2099407325e+01 +2.9172285270e+02 3.5715609960e+02 2.0000000000e+02 0.0000e+00 1.0000e+00
<mgrwt>
<rscale>  0 0.47032562E+03</rscale>
<asrwt>0</asrwt>
<pdfrwt beam="1">  1        2 0.19268521E+00 0.47032562E+03</pdfrwt>
<pdfrwt beam="2">  1       -2 0.67930089E-02 0.47032562E+03</pdfrwt>
<totfact> 0.22757070E+03</totfact>
</mgrwt>
</event>
<event>
 4      1 +1.5204000e-02 5.57959600e+02 7.81860800e-03 9.99668200e-02
       -1 -1    0    0    0  501 -0.0000000000e+00 +0.0000000000e+00 +5.7894640714e+01 5.7894640714e+01 0.0000000000e+00 0.0000e+00 1.0000e+00
        1 -1    0    0  501    0 +0.0000000000e+00 -0.0000000000e+00 -1.3443338243e+03 1.3443338243e+03 0.0000000000e+00 0.0000e+00 -1.0000e+00
     -556  1    1    2    0    0 +1.0615084124e+01 -6.2330476333e+01 -1.8096675075e+02 2.7703200748e+02 2.0000000000e+02 0.0000e+00 1.0000e+00
      556  1    1    2    0    0 -1.0615084124e+01 +6.2330476333e+01 -1.1054724328e+03 1.1251964575e+03 2.0000000000e+02 0.0000e+00 -1.0000e+00
<mgrwt>
<rscale>  0 0.55795958E+03</rscale>
<asrwt>0</asrwt>
<pdfrwt beam="2">  1        1 0.20682061E+00 0.55795958E+03</pdfrwt>
<pdfrwt beam="1">  1       -1 0.89068670E-02 0.55795958E+03</pdfrwt>
<totfact> 0.65228591E+02</totfact>
</mgrwt>
</event>
<event>
 4      1 +1.5204000e-02 6.23910200e+02 7.81860800e-03 9.85700500e-02
        1 -1    0    0  501    0 +0.0000000000e+00 +0.0000000000e+00 +2.3993501222e+02 2.3993501222e+02 0.0000000000e+00 0.0000e+00 -1.0000e+00
       -1 -1    0    0    0  501 -0.0000000000e+00 -0.0000000000e+00 -4.0559309742e+02 4.0559309742e+02 0.0000000000e+00 0.0000e+00 1.0000e+00
     -556  1    1    2    0    0 -7.6741887616e+01 +2.0665057032e+02 +1.3799698769e+01 2.9796678878e+02 2.0000000000e+02 0.0000e+00 1.0000e+00
      556  1    1    2    0    0 +7.6741887616e+01 -2.0665057032e+02 -1.7945778397e+02 3.4756132086e+02 2.0000000000e+02 0.0000e+00 -1.0000e+00
<mgrwt>
<rscale>  0 0.62391020E+03</rscale>
<asrwt>0</asrwt>
<pdfrwt beam="1">  1        1 0.36913079E-01 0.62391020E+03</pdfrwt>
<pdfrwt beam="2">  1       -1 0.62398938E-01 0.62391020E+03</pdfrwt>
<totfact> 0.31002636E+02</totfact>
</mgrwt>
</event>
<event>
 4      1 +1.5204000e-02 5.66969800e+02 7.81860800e-03 9.97640700e-02
       -2 -1    0    0    0  501 -0.0000000000e+00 +0.0000000000e+00 +3.0659323740e+02 3.0659323740e+02 0.0000000000e+00 0.0000e+00 1.0000e+00
        2 -1    0    0  501    0 +0.0000000000e+00 -0.0000000000e+00 -2.6211825342e+02 2.6211825342e+02 0.0000000000e+00 0.0000e+00 -1.0000e+00
     -556  1    1    2    0    0 -8.3839961026e+01 +7.5242142675e+01 +1.8910105161e+02 2.9740498788e+02 2.0000000000e+02 0.0000e+00 -1.0000e+00
      556  1    1    2    0    0 +8.3839961026e+01 -7.5242142675e+01 -1.4462606762e+02 2.7130650293e+02 2.0000000000e+02 0.0000e+00 1.0000e+00
<mgrwt>
<rscale>  0 0.56696978E+03</rscale>
<asrwt>0</asrwt>
<pdfrwt beam="2">  1        2 0.40325885E-01 0.56696978E+03</pdfrwt>
<pdfrwt beam="1">  1       -2 0.47168191E-01 0.56696978E+03</pdfrwt>
<totfact> 0.54797094E+02</totfact>
</mgrwt>
</event>
<event>
 4      1 +1.5204000e-02 7.83316600e+02 7.81860800e-03 9.58448500e-02
       -2 -1    0    0    0  501 -0.0000000000e+00 +0.0000000000e+00 +4.3538983606e+01 4.3538983606e+01 0.0000000000e+00 0.0000e+00 1.0000e+00
        2 -1    0    0  501    0 +0.0000000000e+00 -0.0000000000e+00 -3.5231927102e+03 3.5231927102e+03 0.0000000000e+00 0.0000e+00 -1.0000e+00
     -556  1    1    2    0    0 -1.8619406409e+02 -7.4224938630e+01 -5.0773245429e+02 5.8135171468e+02 2.0000000000e+02 0.0000e+00 1.0000e+00
      556  1    1    2    0    0 +1.8619406409e+02 +7.4224938630e+01 -2.9719212723e+03 2.9853799792e+03 2.0000000000e+02 0.0000e+00 -1.0000e+00
<mgrwt>
<rscale>  0 0.78331661E+03</rscale>
<asrwt>0</asrwt>
<pdfrwt beam="2">  1        2 0.54202950E+00 0.78331661E+03</pdfrwt>
<pdfrwt beam="1">  1       -2 0.66983069E-02 0.78331661E+03</pdfrwt>
<totfact> 0.10961195E+02</totfact>
</mgrwt>
</event>
<event>
 4      1 +1.5204000e-02 7.30793400e+02 7.81860800e-03 9.66597400e-02
       -2 -1    0    0    0  501 -0.0000000000e+00 +0.0000000000e+00 +6.2745986409e+01 6.2745986409e+01 0.0000000000e+00 0.0000e+00 1.0000e+00
        2 -1    0    0  501    0 +0.0000000000e+00 -0.0000000000e+00 -2.1278611512e+03 2.1278611512e+03 0.0000000000e+00 0.0000e+00 -1.0000e+00
     -556  1    1    2    0    0 -3.0567862437e+02 +1.6961771333e+00 -1.0070432346e+03 1.0712508459e+03 2.0000000000e+02 0.0000e+00 1.0000e+00
      556  1    1    2    0    0 +3.0567862437e+02 -1.6961771333e+00 -1.0580719302e+03 1.1193562917e+03 2.0000000000e+02 0.0000e+00 -1.0000e+00
<mgrwt>
<rscale>  0 0.73079340E+03</rscale>
<asrwt>0</asrwt>
<pdfrwt beam="2">  1        2 0.32736329E+00 0.73079340E+03</pdfrwt>
<pdfrwt beam="1">  1       -2 0.96532277E-02 0.73079340E+03</pdfrwt>
<totfact> 0.42379927E+02</totfact>
</mgrwt>
</event>
<event>
 4      1 +1.5204000e-02 1.34077400e+03 7.81860800e-03 8.99784200e-02
        2 -1    0    0  501    0 +0.0000000000e+00 +0.0000000000e+00 +2.6303161643e+03 2.6303161643e+03 0.0000000000e+00 0.0000e+00 -1.0000e+00
       -2 -1    0    0    0  501 -0.0000000000e+00 -0.0000000000e+00 -1.7086098716e+02 1.7086098716e+02 0.0000000000e+00 0.0000e+00 1.0000e+00
     -556  1    1    2    0    0 +1.1924720971e+01 +2.3887410083e+02 -1.0179965611e+01 3.1194016528e+02 2.0000000000e+02 0.0000e+00 1.0000e+00
      556  1    1    2    0    0 -1.1924720971e+01 -2.3887410083e+02 +2.4696351427e+03 2.4892369861e+03 2.0000000000e+02 0.0000e+00 -1.0000e+00
<mgrwt>
<rscale>  0 0.13407735E+04</rscale>
<asrwt>0</asrwt>
<pdfrwt beam="1">  1        2 0.40466399E+00 0.13407735E+04</pdfrwt>
<pdfrwt beam="2">  1       -2 0.26286308E-01 0.13407735E+04</pdfrwt>
<totfact> 0.37586230E+01</totfact>
</mgrwt>
</event>
<event>
 4      1 +1.5204000e-02 4.57172300e+02 7.81860800e-03 1.02560500e-01
        2 -1    0    0  501    0 +0.0000000000e+00 +0.0000000000e+00 +1.3936999577e+02 1.3936999577e+02 0.0000000000e+00 0.0000e+00 -1.0000e+00
       -2 -1    0    0    0  501 -0.0000000000e+00 -0.0000000000e+00 -3.7491311413e+02 3.7491311413e+02 0.0000000000e+00 0.0000e+00 1.0000e+00
     -556  1    1    2    0    0 -1.7455752654e+01 +3.3541580055e+01 -2.3479531415e+02 3.1073876559e+02 2.0000000000e+02 0.0000e+00 1.0000e+00
      556  1    1    2    0    0 +1.7455752654e+01 -3.3541580055e+01 -7.4780421395e-01 2.0354434432e+02 2.0000000000e+02 0.0000e+00 -1.0000e+00
<mgrwt>
<rscale>  0 0.45717235E+03</rscale>
<asrwt>0</asrwt>
<pdfrwt beam="1">  1        2 0.21441538E-01 0.45717235E+03</pdfrwt>
<pdfrwt beam="2">  1       -2 0.57678940E-01 0.45717235E+03</pdfrwt>
<totfact> 0.74046343E+02</totfact>
</mgrwt>
</event>
<event>
 4      1 +1.5204000e-02 6.01819600e+02 7.81860800e-03 9.90163800e-02
        1 -1    0    0  501    0 +0.0000000000e+00 +0.0000000000e+00 +2.8056149449e+02 2.8056149449e+02 0.0000000000e+00 0.0000e+00 -1.0000e+00
       -1 -1    0    0    0  501 -0.0000000000e+00 -0.0000000000e+00 -3.2273386647e+02 3.2273386647e+02 0.0000000000e+00 0.0000e+00 1.0000e+00
     -556  1    1    2    0    0 +1.8288952292e+01 -2.0900340375e+02 +5.9919071230e+01 2.9598514093e+02 2.0000000000e+02 0.0000e+00 1.0000e+00
      556  1    1    2    0    0 -1.8288952292e+01 +2.0900340375e+02 -1.0209144320e+02 3.0731022002e+02 2.0000000000e+02 0.0000e+00 -1.0000e+00
<mgrwt>
<rscale>  0 0.60181956E+03</rscale>
<asrwt>0</asrwt>
<pdfrwt beam="1">  1        1 0.43163307E-01 0.60181956E+03</pdfrwt>
<pdfrwt beam="2">  1       -1 0.49651364E-01 0.60181956E+03</pdfrwt>
<totfact> 0.39430874E+02</totfact>
</mgrwt>
</event>
<event>
 4      1 +1.5204000e-02 9.70575600e+02 7.81860800e-03 9.34141900e-02
        1 -1    0    0  501    0 +0.0000000000e+00 +0.0000000000e+00 +2.6644481759e+03 2.6644481759e+03 0.0000000000e+00 0.0000e+00 -1.0000e+00
       -1 -1    0    0    0  501 -0.0000000000e+00 -0.0000000000e+00 -8.8387622472e+01 8.8387622472e+01 0.0000000000e+00 0.0000e+00 1.0000e+00
     -556  1    1    2    0    0 +2.9811560864e+02 -8.0737897849e+01 +3.9061064262e+02 5.3662668438e+02 2.0000000000e+02 0.0000e+00 1.0000e+00
      556  1    1    2    0    0 -2.9811560864e+02 +8.0737897849e+01 +2.1854499108e+03 2.2162091139e+03 2.0000000000e+02 0.0000e+00 -1.0000e+00
<mgrwt>
<rscale>  0 0.97057558E+03</rscale>
<asrwt>0</asrwt>
<pdfrwt beam="1">  1        1 0.40991504E+00 0.97057558E+03</pdfrwt>
<pdfrwt beam="2">  1       -1 0.13598098E-01 0.97057558E+03</pdfrwt>
<totfact> 0.40996936E+01</totfact>
</mgrwt>
</event>
<event>
 4      1 +1.5204000e-02 8.05198300e+02 7.81860800e-03 9.55252300e-02
       -2 -1    0    0    0  501 -0.0000000000e+00 +0.0000000000e+00 +1.5932012587e+02 1.5932012587e+02 0.0000000000e+00 0.0000e+00 -1.0000e+00
        2 -1    0    0  501    0 +0.0000000000e+00 -0.0000000000e+00 -1.0173609778e+03 1.0173609778e+03 0.0000000000e+00 0.0000e+00 1.0000e+00
     -556  1    1    2    0    0 -1.7287962978e+02 +1.0108114057e+02 -1.0599528048e+01 2.8322625825e+02 2.0000000000e+02 0.0000e+00 -1.0000e+00
      556  1    1    2    0    0 +1.7287962978e+02 -1.0108114057e+02 -8.4744132388e+02 8.9345484541e+02 2.0000000000e+02 0.0000e+00 1.0000e+00
<mgrwt>
<rscale>  0 0.80519831E+03</rscale>
<asrwt>0</asrwt>
<pdfrwt beam="2">  1        2 0.15651707E+00 0.80519831E+03</pdfrwt>
<pdfrwt beam="1">  1       -2 0.24510790E-01 0.80519831E+03</pdfrwt>
<totfact> 0.36640057E+02</totfact>
</mgrwt>
</event>
<event>
 4      1 +1.5204000e-02 9.01711800e+02 7.81860800e-03 9.42344400e-02
        2 -1    0    0  501    0 +0.0000000000e+00 +0.0000000000e+00 +1.9176530208e+03 1.9176530208e+03 0.0000000000e+00 0.0000e+00 -1.0000e+00
       -2 -1    0    0    0  501 -0.0000000000e+00 -0.0000000000e+00 -1.0599991406e+02 1.0599991406e+02 0.0000000000e+00 0.0000e+00 1.0000e+00
     -556  1    1    2    0    0 -2.4299740414e+02 -2.8494385048e+02 +5.6524725863e+02 7.0692658723e+02 2.0000000000e+02 0.0000e+00 1.0000e+00
      556  1    1    2    0    0 +2.4299740414e+02 +2.8494385048e+02 +1.2464058481e+03 1.3167263476e+03 2.0000000000e+02 0.0000e+00 -1.0000e+00
<mgrwt>
<rscale>  0 0.90171183E+03</rscale>
<asrwt>0</asrwt>
<pdfrwt beam="1">  1        2 0.29502352E+00 0.90171183E+03</pdfrwt>
<pdfrwt beam="2">  1       -2 0.16307680E-01 0.90171183E+03</pdfrwt>
<totfact> 0.22789169E+02</totfact>
</mgrwt>
</event>
<event>
 4      1 +1.5204000e-02 9.55326300e+02 7.81860800e-03 9.35894700e-02
        1 -1    0    0  501    0 +0.0000000000e+00 +0.0000000000e+00 +1.4248524874e+03 1.4248524874e+03 0.0000000000e+00 0.0000e+00 -1.0000e+00
       -1 -1    0    0    0  501 -0.0000000000e+00 -0.0000000000e+00 -1.6013030354e+02 1.6013030354e+02 0.0000000000e+00 0.0000e+00 1.0000e+00
     -556  1    1    2    0    0 +3.5672545305e+01 +2.0079257294e+02 -2.8208740499e+00 2.8565389052e+02 2.0000000000e+02 0.0000e+00 1.0000e+00
      556  1    1    2    0    0 -3.5672545305e+01 -2.0079257294e+02 +1.2675430579e+03 1.2993289004e+03 2.0000000000e+02 0.0000e+00 -1.0000e+00
<mgrwt>
<rscale>  0 0.95532625E+03</rscale>
<asrwt>0</asrwt>
<pdfrwt beam="1">  1        1 0.21920807E+00 0.95532625E+03</pdfrwt>
<pdfrwt beam="2">  1       -1 0.24635432E-01 0.95532625E+03</pdfrwt>
<totfact> 0.10653319E+02</totfact>
</mgrwt>
</event>
<event>
 4      1 +1.5204000e-02 4.84831800e+02 7.81860800e-03 1.01781600e-01
       -1 -1    0    0    0  501 -0.0000000000e+00 +0.0000000000e+00 +1.9310600540e+02 1.9310600540e+02 0.0000000000e+00 0.0000e+00 1.0000e+00
        1 -1    0    0  501    0 +0.0000000000e+00 -0.0000000000e+00 -3.0431711491e+02 3.0431711491e+02 0.0000000000e+00 0.0000e+00 -1.0000e+00
     -556  1    1    2    0    0 -3.4890155447e+01 -1.5292718463e+01 +7.9395454067e+01 2.1852878143e+02 2.0000000000e+02 0.0000e+00 1.0000e+00
      556  1    1    2    0    0 +3.4890155447e+01 +1.5292718463e+01 -1.9060656357e+02 2.7889433889e+02 2.0000000000e+02 0.0000e+00 -1.0000e+00
<mgrwt>
<rscale>  0 0.48483177E+03</rscale>
<asrwt>0</asrwt>
<pdfrwt beam="2">  1        1 0.46818018E-01 0.48483177E+03</pdfrwt>
<pdfrwt beam="1">  1       -1 0.29708616E-01 0.48483177E+03</pdfrwt>
<totfact> 0.89655937E+02</totfact>
</mgrwt>
</event>
<event>
 4      1 +1.5204000e-02 8.34288400e+02 7.81860800e-03 9.51167100e-02
       -1 -1    0    0    0  501 -0.0000000000e+00 +0.0000000000e+00 +1.4189433230e+02 1.4189433230e+02 0.0000000000e+00 0.0000e+00 1.0000e+00
        1 -1    0    0  501    0 +0.0000000000e+00 -0.0000000000e+00 -1.2263300248e+03 1.2263300248e+03 0.0000000000e+00 0.0000e+00 -1.0000e+00
     -556  1    1    2    0    0 -2.4672333952e+01 +1.8825246478e+02 -1.0555151407e+03 1.0909445114e+03 2.0000000000e+02 0.0000e+00 -1.0000e+00
      556  1    1    2    0    0 +2.4672333952e+01 -1.8825246478e+02 -2.8920551802e+01 2.7727984578e+02 2.0000000000e+02 0.0000e+00 1.0000e+00
<mgrwt>
<rscale>  0 0.83428839E+03</rscale>
<asrwt>0</asrwt>
<pdfrwt beam="2">  1        1 0.18866616E+00 0.83428839E+03</pdfrwt>
<pdfrwt beam="1">  1       -1 0.21829897E-01 0.83428839E+03</pdfrwt>
<totfact> 0.18220863E+02</totfact>
</mgrwt>
</event>
<event>
 4      1 +1.5204000e-02 1.51839900e+03 7.81860800e-03 8.87230900e-02
        1 -1    0    0  501    0 +0.0000000000e+00 +0.0000000000e+00 +1.7494517415e+03 1.7494517415e+03 0.0000000000e+00 0.0000e+00 -1.0000e+00
       -1 -1    0    0    0  501 -0.0000000000e+00 -0.0000000000e+00 -3.2946548747e+02 3.2946548747e+02 0.0000000000e+00 0.0000e+00 1.0000e+00
     -556  1    1    2    0    0 -2.7067954529e+02 +3.5463147786e+02 -8.5238398430e+01 4.9628266733e+02 2.0000000000e+02 0.0000e+00 -1.0000e+00
      556  1    1    2    0    0 +2.7067954529e+02 -3.5463147786e+02 +1.5052246525e+03 1.5826345616e+03 2.0000000000e+02 0.0000e+00 1.0000e+00
<mgrwt>
<rscale>  0 0.15183991E+04</rscale>
<asrwt>0</asrwt>
<pdfrwt beam="1">  1        1 0.26914642E+00 0.15183991E+04</pdfrwt>
<pdfrwt beam="2">  1       -1 0.50686999E-01 0.15183991E+04</pdfrwt>
<totfact> 0.16659428E+01</totfact>
</mgrwt>
</event>
<event>
 4      1 +1.5204000e-02 5.08461400e+02 7.81860800e-03 1.01159400e-01
       -1 -1    0    0    0  501 -0.0000000000e+00 +0.0000000000e+00 +4.4110518337e+01 4.4110518337e+01 0.0000000000e+00 0.0000e+00 1.0000e+00
        1 -1    0    0  501    0 +0.0000000000e+00 -0.0000000000e+00 -1.4652571238e+03 1.4652571238e+03 0.0000000000e+00 0.0000e+00 -1.0000e+00
     -556  1    1    2    0    0 +3.6207020385e+01 -2.9307938340e+01 -1.1554854646e+03 1.1735913098e+03 2.0000000000e+02 0.0000e+00 -1.0000e+00
      556  1    1    2    0    0 -3.6207020385e+01 +2.9307938340e+01 -2.6566114081e+02 3.3577633227e+02 2.0000000000e+02 0.0000e+00 1.0000e+00
<mgrwt>
<rscale>  0 0.50846141E+03</rscale>
<asrwt>0</asrwt>
<pdfrwt beam="2">  1        1 0.22542414E+00 0.50846141E+03</pdfrwt>
<pdfrwt beam="1">  1       -1 0.67862345E-02 0.50846141E+03</pdfrwt>
<totfact> 0.82412856E+02</totfact>
</mgrwt>
</event>
<event>
 4      1 +1.5204000e-02 6.83506900e+02 7.81860800e-03 9.74586100e-02
       -2 -1    0    0    0  501 -0.0000000000e+00 +0.0000000000e+00 +9.3591391317e+01 9.3591391317e+01 0.0000000000e+00 0.0000e+00 -1.0000e+00
        2 -1    0    0  501    0 +0.0000000000e+00 -0.0000000000e+00 -1.2479289631e+03 1.2479289631e+03 0.0000000000e+00 0.0000e+00 1.0000e+00
     -556  1    1    2    0    0 +1.1963703601e+02 -5.5487879565e+01 -1.0555348260e+03 1.0823796441e+03 2.0000000000e+02 0.0000e+00 1.0000e+00
      556  1    1    2    0    0 -1.1963703601e+02 +5.5487879565e+01 -9.8802745836e+01 2.5914071032e+02 2.0000000000e+02 0.0000e+00 -1.0000e+00
<mgrwt>
<rscale>  0 0.68350686E+03</rscale>
<asrwt>0</asrwt>
<pdfrwt beam="2">  1        2 0.19198906E+00 0.68350686E+03</pdfrwt>
<pdfrwt beam="1">  1       -2 0.14398676E-01 0.68350686E+03</pdfrwt>
<totfact> 0.67307696E+02</totfact>
</mgrwt>
</event>
<event>
 4      1 +1.5204000e-02 8.52754900e+02 7.81860800e-03 9.48664700e-02
       -2 -1    0    0    0  501 -0.0000000000e+00 +0.0000000000e+00 +2.2835877231e+02 2.2835877231e+02 0.0000000000e+00 0.0000e+00 -1.0000e+00
        2 -1    0    0  501    0 +0.0000000000e+00 -0.0000000000e+00 -7.9610578464e+02 7.9610578464e+02 0.0000000000e+00 0.0000e+00 1.0000e+00
     -556  1    1    2    0    0 +3.1618916667e+02 -1.8629478208e+01 -3.9211581931e+01 3.7664332562e+02 2.0000000000e+02 0.0000e+00 -1.0000e+00
      556  1    1    2    0    0 -3.1618916667e+02 +1.8629478208e+01 -5.2853543040e+02 6.4782123133e+02 2.0000000000e+02 0.0000e+00 1.0000e+00
<mgrwt>
<rscale>  0 0.85275492E+03</rscale>
<asrwt>0</asrwt>
<pdfrwt beam="2">  1        2 0.12247781E+00 0.85275492E+03</pdfrwt>
<pdfrwt beam="1">  1       -2 0.35132119E-01 0.85275492E+03</pdfrwt>
<totfact> 0.26460835E+02</totfact>
</mgrwt>
</event>
<event>
 4      1 +1.5204000e-02 7.23351500e+02 7.81860800e-03 9.67811100e-02
       -1 -1    0    0    0  501 -0.0000000000e+00 +0.0000000000e+00 +5.7288700880e+02 5.7288700880e+02 0.0000000000e+00 0.0000e+00 1.0000e+00
        1 -1    0    0  501    0 +0.0000000000e+00 -0.0000000000e+00 -2.2833359957e+02 2.2833359957e+02 0.0000000000e+00 0.0000e+00 -1.0000e+00
     -556  1    1    2    0    0 -9.8412902636e+01 +6.9862579788e+01 +4.7812358401e+02 5.3213535970e+02 2.0000000000e+02 0.0000e+00 1.0000e+00
      556  1    1    2    0    0 +9.8412902636e+01 -6.9862579788e+01 -1.3357017478e+02 2.6908524867e+02 2.0000000000e+02 0.0000e+00 -1.0000e+00
<mgrwt>
<rscale>  0 0.72335151E+03</rscale>
<asrwt>0</asrwt>
<pdfrwt beam="2">  1        1 0.35128246E-01 0.72335151E+03</pdfrwt>
<pdfrwt beam="1">  1       -1 0.88136463E-01 0.72335151E+03</pdfrwt>
<totfact> 0.16065033E+02</totfact>
</mgrwt>
</event>
<event>
 4      1 +1.5204000e-02 9.23985900e+02 7.81860800e-03 9.39608500e-02
       -1 -1    0    0    0  501 -0.0000000000e+00 +0.0000000000e+00 +5.2640355783e+02 5.2640355783e+02 0.0000000000e+00 0.0000e+00 -1.0000e+00
        1 -1    0    0  501    0 +0.0000000000e+00 -0.0000000000e+00 -4.0546359248e+02 4.0546359248e+02 0.0000000000e+00 0.0000e+00 1.0000e+00
     -556  1    1    2    0    0 -6.0862878358e+00 +2.8330770750e+02 +3.6825693369e+02 5.0587890768e+02 2.0000000000e+02 0.0000e+00 -1.0000e+00
      556  1    1    2    0    0 +6.0862878358e+00 -2.8330770750e+02 -2.4731696834e+02 4.2598824263e+02 2.0000000000e+02 0.0000e+00 1.0000e+00
<mgrwt>
<rscale>  0 0.92398588E+03</rscale>
<asrwt>0</asrwt>
<pdfrwt beam="2">  1        1 0.62379014E-01 0.92398588E+03</pdfrwt>
<pdfrwt beam="1">  1       -1 0.80985163E-01 0.92398588E+03</pdfrwt>
<totfact> 0.90193276E+01</totfact>
</mgrwt>
</event>
<event>
 4      1 +1.5204000e-02 4.38478400e+02 7.81860800e-03 1.03121500e-01
       -1 -1    0    0    0  501 -0.0000000000e+00 +0.0000000000e+00 +7.7732858781e+01 7.7732858781e+01 0.0000000000e+00 0.0000e+00 1.0000e+00
        1 -1    0    0  501    0 +0.0000000000e+00 -0.0000000000e+00 -6.1834639622e+02 6.1834639622e+02 0.0000000000e+00 0.0000e+00 -1.0000e+00
     -556  1    1    2    0    0 -3.1354008783e+01 +1.8209679665e+01 -4.0074349103e+02 4.4934397949e+02 2.0000000000e+02 0.0000e+00 -1.0000e+00
      556  1    1    2    0    0 +3.1354008783e+01 -1.8209679665e+01 -1.3987004642e+02 2.4673527552e+02 2.0000000000e+02 0.0000e+00 1.0000e+00
<mgrwt>
<rscale>  0 0.43847843E+03</rscale>
<asrwt>0</asrwt>
<pdfrwt beam="2">  1        1 0.95130214E-01 0.43847843E+03</pdfrwt>
<pdfrwt beam="1">  1       -1 0.11958901E-01 0.43847843E+03</pdfrwt>
<totfact> 0.15568986E+03</totfact>
</mgrwt>
</event>
<event>
 4      1 +1.5204000e-02 1.03707000e+03 7.81860800e-03 9.26879700e-02
        2 -1    0    0  501    0 +0.0000000000e+00 +0.0000000000e+00 +9.9912928834e+02 9.9912928834e+02 0.0000000000e+00 0.0000e+00 -1.0000e+00
       -2 -1    0    0    0  501 -0.0000000000e+00 -0.0000000000e+00 -2.6911263257e+02 2.6911263257e+02 0.0000000000e+00 0.0000e+00 1.0000e+00
     -556  1    1    2    0    0 -2.9259216587e+02 +1.8553474464e+02 -3.8449787364e+01 4.0188518652e+02 2.0000000000e+02 0.0000e+00 1.0000e+00
      556  1    1    2    0    0 +2.9259216587e+02 -1.8553474464e+02 +7.6846644313e+02 8.6635673438e+02 2.0000000000e+02 0.0000e+00 -1.0000e+00
<mgrwt>
<rscale>  0 0.10370696E+04</rscale>
<asrwt>0</asrwt>
<pdfrwt beam="1">  1        2 0.15371220E+00 0.10370696E+04</pdfrwt>
<pdfrwt beam="2">  1       -2 0.41401944E-01 0.10370696E+04</pdfrwt>
<totfact> 0.13879189E+02</totfact>
</mgrwt>
</event>
<event>
 4      1 +1.5204000e-02 5.95462000e+02 7.81860800e-03 9.91486600e-02
        3 -1    0    0  501    0 +0.0000000000e+00 +0.0000000000e+00 +9.8976045368e+02 9.8976045368e+02 0.0000000000e+00 0.0000e+00 -1.0000e+00
       -3 -1    0    0    0  501 -0.0000000000e+00 -0.0000000000e+00 -8.9560809063e+01 8.9560809063e+01 0.0000000000e+00 0.0000e+00 1.0000e+00
     -556  1    1    2    0    0 -8.8985623499e+01 -8.3615984798e+01 +1.1718855109e+02 2.6199853169e+02 2.0000000000e+02 0.0000e+00 -1.0000e+00
      556  1    1    2    0    0 +8.8985623499e+01 +8.3615984798e+01 +7.8301109352e+02 8.1732273105e+02 2.0000000000e+02 0.0000e+00 1.0000e+00
<mgrwt>
<rscale>  0 0.59546200E+03</rscale>
<asrwt>0</asrwt>
<pdfrwt beam="1">  1        3 0.15227083E+00 0.59546200E+03</pdfrwt>
<pdfrwt beam="2">  1       -3 0.13778587E-01 0.59546200E+03</pdfrwt>
<totfact> 0.36527569E+01</totfact>
</mgrwt>
</event>
<event>
 4      1 +1.5204000e-02 8.72027200e+02 7.81860800e-03 9.46124100e-02
        1 -1    0    0  501    0 +0.0000000000e+00 +0.0000000000e+00 +1.4342284739e+03 1.4342284739e+03 0.0000000000e+00 0.0000e+00 -1.0000e+00
       -1 -1    0    0    0  501 -0.0000000000e+00 -0.0000000000e+00 -1.3255059515e+02 1.3255059515e+02 0.0000000000e+00 0.0000e+00 1.0000e+00
     -556  1    1    2    0    0 -2.1195437726e+01 +2.8069834217e+02 +1.7253949524e+02 3.8601901934e+02 2.0000000000e+02 0.0000e+00 1.0000e+00
      556  1    1    2    0    0 +2.1195437726e+01 -2.8069834217e+02 +1.1291383835e+03 1.1807600497e+03 2.0000000000e+02 0.0000e+00 -1.0000e+00
<mgrwt>
<rscale>  0 0.87202715E+03</rscale>
<asrwt>0</asrwt>
<pdfrwt beam="1">  1        1 0.22065052E+00 0.87202715E+03</pdfrwt>
<pdfrwt beam="2">  1       -1 0.20392400E-01 0.87202715E+03</pdfrwt>
<totfact> 0.14532845E+02</totfact>
</mgrwt>
</event>
<event>
 4      1 +1.5204000e-02 9.37595700e+02 7.81860800e-03 9.37976800e-02
        2 -1    0    0  501    0 +0.0000000000e+00 +0.0000000000e+00 +1.9061679041e+03 1.9061679041e+03 0.0000000000e+00 0.0000e+00 -1.0000e+00
       -2 -1    0    0    0  501 -0.0000000000e+00 -0.0000000000e+00 -1.1529488782e+02 1.1529488782e+02 0.0000000000e+00 0.0000e+00 1.0000e+00
     -556  1    1    2    0    0 +1.7903180077e+02 -1.9511540307e+02 +1.8151164203e+02 3.7824447437e+02 2.0000000000e+02 0.0000e+00 1.0000e+00
      556  1    1    2    0    0 -1.7903180077e+02 +1.9511540307e+02 +1.6093613743e+03 1.6432183176e+03 2.0000000000e+02 0.0000e+00 -1.0000e+00
<mgrwt>
<rscale>  0 0.93759568E+03</rscale>
<asrwt>0</asrwt>
<pdfrwt beam="1">  1        2 0.29325658E+00 0.93759568E+03</pdfrwt>
<pdfrwt beam="2">  1       -2 0.17737676E-01 0.93759568E+03</pdfrwt>
<totfact> 0.19957906E+02</totfact>
</mgrwt>
</event>
<event>
 4      1 +1.5204000e-02 7.57795400e+02 7.81860800e-03 9.62319900e-02
       -1 -1    0    0    0  501 -0.0000000000e+00 +0.0000000000e+00 +1.0743203451e+02 1.0743203451e+02 0.0000000000e+00 0.0000e+00 1.0000e+00
        1 -1    0    0  501    0 +0.0000000000e+00 -0.0000000000e+00 -1.3363191411e+03 1.3363191411e+03 0.0000000000e+00 0.0000e+00 -1.0000e+00
     -556  1    1    2    0    0 -1.1223546995e+02 +2.3875268945e+02 -9.6555802681e+02 1.0207359847e+03 2.0000000000e+02 0.0000e+00 -1.0000e+00
      556  1    1    2    0    0 +1.1223546995e+02 -2.3875268945e+02 -2.6332907977e+02 4.2301519084e+02 2.0000000000e+02 0.0000e+00 1.0000e+00
<mgrwt>
<rscale>  0 0.75779544E+03</rscale>
<asrwt>0</asrwt>
<pdfrwt beam="2">  1        1 0.20558756E+00 0.75779544E+03</pdfrwt>
<pdfrwt beam="1">  1       -1 0.16528005E-01 0.75779544E+03</pdfrwt>
<totfact> 0.24275745E+02</totfact>
</mgrwt>
</event>
<event>
 4      1 +1.5204000e-02 6.84937100e+02 7.81860800e-03 9.74334400e-02
       -2 -1    0    0    0  501 -0.0000000000e+00 +0.0000000000e+00 +1.3233611981e+03 1.3233611981e+03 0.0000000000e+00 0.0000e+00 1.0000e+00
        2 -1    0    0  501    0 +0.0000000000e+00 -0.0000000000e+00 -8.8626382329e+01 8.8626382329e+01 0.0000000000e+00 0.0000e+00 -1.0000e+00
     -556  1    1    2    0    0 +1.6425482300e+02 +1.6893987284e+02 +3.1324151190e+02 4.4004610246e+02 2.0000000000e+02 0.0000e+00 -1.0000e+00
      556  1    1    2    0    0 -1.6425482300e+02 -1.6893987284e+02 +9.2149330389e+02 9.7194147798e+02 2.0000000000e+02 0.0000e+00 1.0000e+00
<mgrwt>
<rscale>  0 0.68493712E+03</rscale>
<asrwt>0</asrwt>
<pdfrwt beam="2">  1        2 0.13634829E-01 0.68493712E+03</pdfrwt>
<pdfrwt beam="1">  1       -2 0.20359402E+00 0.68493712E+03</pdfrwt>
<totfact> 0.58027648E+01</totfact>
</mgrwt>
</event>
<event>
 4      1 +1.5204000e-02 4.91079300e+02 7.81860800e-03 1.01613400e-01
        1 -1    0    0  501    0 +0.0000000000e+00 +0.0000000000e+00 +2.1068050829e+02 2.1068050829e+02 0.0000000000e+00 0.0000e+00 1.0000e+00
       -1 -1    0    0    0  501 -0.0000000000e+00 -0.0000000000e+00 -2.8616662254e+02 2.8616662254e+02 0.0000000000e+00 0.0000e+00 -1.0000e+00
     -556  1    1    2    0    0 +1.3394693423e+02 -3.0038725730e+01 +7.2486131516e-01 2.4257912453e+02 2.0000000000e+02 0.0000e+00 1.0000e+00
      556  1    1    2    0    0 -1.3394693423e+02 +3.0038725730e+01 -7.6210975564e+01 2.5426800631e+02 2.0000000000e+02 0.0000e+00 -1.0000e+00
<mgrwt>
<rscale>  0 0.49107934E+03</rscale>
<asrwt>0</asrwt>
<pdfrwt beam="1">  1        1 0.32412386E-01 0.49107934E+03</pdfrwt>
<pdfrwt beam="2">  1       -1 0.44025634E-01 0.49107934E+03</pdfrwt>
<totfact> 0.71410477E+02</totfact>
</mgrwt>
</event>
<event>
 4      1 +1.5204000e-02 8.76448400e+02 7.81860800e-03 9.45551100e-02
        1 -1    0    0  501    0 +0.0000000000e+00 +0.0000000000e+00 +5.3322459443e+02 5.3322459443e+02 0.0000000000e+00 0.0000e+00 -1.0000e+00
       -1 -1    0    0    0  501 -0.0000000000e+00 -0.0000000000e+00 -3.6014927904e+02 3.6014927904e+02 0.0000000000e+00 0.0000e+00 1.0000e+00
     -556  1    1    2    0    0 -9.8970140915e+01 -3.5678770191e+02 +2.1116030880e+02 4.7083036121e+02 2.0000000000e+02 0.0000e+00 -1.0000e+00
      556  1    1    2    0    0 +9.8970140915e+01 +3.5678770191e+02 -3.8084993410e+01 4.2254351225e+02 2.0000000000e+02 0.0000e+00 1.0000e+00
<mgrwt>
<rscale>  0 0.87644841E+03</rscale>
<asrwt>0</asrwt>
<pdfrwt beam="1">  1        1 0.82034553E-01 0.87644841E+03</pdfrwt>
<pdfrwt beam="2">  1       -1 0.55407581E-01 0.87644841E+03</pdfrwt>
<totfact> 0.13464891E+02</totfact>
</mgrwt>
</event>
<event>
 4      1 +1.5204000e-02 4.40748900e+02 7.81860800e-03 1.03051700e-01
       -1 -1    0    0    0  501 -0.0000000000e+00 +0.0000000000e+00 +4.8129352843e+01 4.8129352843e+01 0.0000000000e+00 0.0000e+00 1.0000e+00
        1 -1    0    0  501    0 +0.0000000000e+00 -0.0000000000e+00 -1.0090495380e+03 1.0090495380e+03 0.0000000000e+00 0.0000e+00 -1.0000e+00
     -556  1    1    2    0    0 +1.8653354726e-01 -7.3112715299e+01 -3.4436435582e+02 4.0488555604e+02 2.0000000000e+02 0.0000e+00 1.0000e+00
      556  1    1    2    0    0 -1.8653354726e-01 +7.3112715299e+01 -6.1655582933e+02 6.5229333479e+02 2.0000000000e+02 0.0000e+00 -1.0000e+00
<mgrwt>
<rscale>  0 0.44074891E+03</rscale>
<asrwt>0</asrwt>
<pdfrwt beam="2">  1        1 0.15523839E+00 0.44074891E+03</pdfrwt>
<pdfrwt beam="1">  1       -1 0.74045157E-02 0.44074891E+03</pdfrwt>
<totfact> 0.15246245E+03</totfact>
</mgrwt>
</event>
<event>
 4      1 +1.5204000e-02 7.81544100e+02 7.81860800e-03 9.58712200e-02
       -2 -1    0    0    0  501 -0.0000000000e+00 +0.0000000000e+00 +3.2456187702e+02 3.2456187702e+02 0.0000000000e+00 0.0000e+00 1.0000e+00
        2 -1    0    0  501    0 +0.0000000000e+00 -0.0000000000e+00 -4.7048904014e+02 4.7048904014e+02 0.0000000000e+00 0.0000e+00 -1.0000e+00
     -556  1    1    2    0    0 +1.3110740365e+02 +3.0878787815e+02 -5.9947894228e+01 3.9513650174e+02 2.0000000000e+02 0.0000e+00 1.0000e+00
      556  1    1    2    0    0 -1.3110740365e+02 -3.0878787815e+02 -8.5979268893e+01 3.9991441542e+02 2.0000000000e+02 0.0000e+00 -1.0000e+00
<mgrwt>
<rscale>  0 0.78154413E+03</rscale>
<asrwt>0</asrwt>
<pdfrwt beam="2">  1        2 0.72382928E-01 0.78154413E+03</pdfrwt>
<pdfrwt beam="1">  1       -2 0.49932597E-01 0.78154413E+03</pdfrwt>
<totfact> 0.25265482E+02</totfact>
</mgrwt>
</event>
<event>
 4      1 +1.5204000e-02 6.82774700e+02 7.81860800e-03 9.74715200e-02
        2 -1    0    0  501    0 +0.0000000000e+00 +0.0000000000e+00 +8.9092378650e+02 8.9092378650e+02 0.0000000000e+00 0.0000e+00 -1.0000e+00
       -2 -1    0    0    0  501 -0.0000000000e+00 -0.0000000000e+00 -1.3081403730e+02 1.3081403730e+02 0.0000000000e+00 0.0000e+00 1.0000e+00
     -556  1    1    2    0    0 +1.6873465691e+02 +1.9083764183e+02 +2.1850107254e+02 3.9068287483e+02 2.0000000000e+02 0.0000e+00 -1.0000e+00
      556  1    1    2    0    0 -1.6873465691e+02 -1.9083764183e+02 +5.4160867667e+02 6.3105494897e+02 2.0000000000e+02 0.0000e+00 1.0000e+00
<mgrwt>
<rscale>  0 0.68277474E+03</rscale>
<asrwt>0</asrwt>
<pdfrwt beam="1">  1        2 0.13706519E+00 0.68277474E+03</pdfrwt>
<pdfrwt beam="2">  1       -2 0.20125237E-01 0.68277474E+03</pdfrwt>
<totfact> 0.63174006E+02</totfact>
</mgrwt>
</event>
<event>
 4      1 +1.5204000e-02 5.08706200e+02 7.81860800e-03 1.01153100e-01
       -1 -1    0    0    0  501 -0.0000000000e+00 +0.0000000000e+00 +8.6964718575e+01 8.6964718575e+01 0.0000000000e+00 0.0000e+00 1.0000e+00
        1 -1    0    0  501    0 +0.0000000000e+00 -0.0000000000e+00 -7.4392822126e+02 7.4392822126e+02 0.0000000000e+00 0.0000e+00 -1.0000e+00
     -556  1    1    2    0    0 +4.0823888301e+01 +2.3481321806e+00 -5.7631683363e+02 6.1140264663e+02 2.0000000000e+02 0.0000e+00 -1.0000e+00
      556  1    1    2    0    0 -4.0823888301e+01 -2.3481321806e+00 -8.0646669052e+01 2.1949029320e+02 2.0000000000e+02 0.0000e+00 1.0000e+00
<mgrwt>
<rscale>  0 0.50870624E+03</rscale>
<asrwt>0</asrwt>
<pdfrwt beam="2">  1        1 0.11445050E+00 0.50870624E+03</pdfrwt>
<pdfrwt beam="1">  1       -1 0.13379188E-01 0.50870624E+03</pdfrwt>
<totfact> 0.99059255E+02</totfact>
</mgrwt>
</event>
<event>
 4      1 +1.5204000e-02 6.72583700e+02 7.81860800e-03 9.76530200e-02
        2 -1    0    0  501    0 +0.0000000000e+00 +0.0000000000e+00 +1.6062943346e+02 1.6062943346e+02 0.0000000000e+00 0.0000e+00 -1.0000e+00
       -2 -1    0    0    0  501 -0.0000000000e+00 -0.0000000000e+00 -7.0405654684e+02 7.0405654684e+02 0.0000000000e+00 0.0000e+00 1.0000e+00
     -556  1    1    2    0    0 -2.0444337551e+02 -2.2493222631e+01 -4.6128126962e+01 2.9056985899e+02 2.0000000000e+02 0.0000e+00 -1.0000e+00
      556  1    1    2    0    0 +2.0444337551e+02 +2.2493222631e+01 -4.9729898642e+02 5.7411612131e+02 2.0000000000e+02 0.0000e+00 1.0000e+00
<mgrwt>
<rscale>  0 0.67258369E+03</rscale>
<asrwt>0</asrwt>
<pdfrwt beam="1">  1        2 0.24712221E-01 0.67258369E+03</pdfrwt>
<pdfrwt beam="2">  1       -2 0.10831639E+00 0.67258369E+03</pdfrwt>
<totfact> 0.15318393E+02</totfact>
</mgrwt>
</event>
<event>
 4      1 +1.5204000e-02 7.35550400e+02 7.81860800e-03 9.65829600e-02
        1 -1    0    0  501    0 +0.0000000000e+00 +0.0000000000e+00 +1.6333786580e+03 1.6333786580e+03 0.0000000000e+00 0.0000e+00 -1.0000e+00
       -1 -1    0    0    0  501 -0.0000000000e+00 -0.0000000000e+00 -8.2809082836e+01 8.2809082836e+01 0.0000000000e+00 0.0000e+00 1.0000e+00
     -556  1    1    2    0    0 -1.3294019957e+02 -8.2644235440e+01 +1.5465554069e+02 2.9735753325e+02 2.0000000000e+02 0.0000e+00 1.0000e+00
      556  1    1    2    0    0 +1.3294019957e+02 +8.2644235440e+01 +1.3959140345e+03 1.4188302076e+03 2.0000000000e+02 0.0000e+00 -1.0000e+00
<mgrwt>
<rscale>  0 0.73555038E+03</rscale>
<asrwt>0</asrwt>
<pdfrwt beam="1">  1        1 0.25128900E+00 0.73555038E+03</pdfrwt>
<pdfrwt beam="2">  1       -1 0.12739860E-01 0.73555038E+03</pdfrwt>
<totfact> 0.23188026E+02</totfact>
</mgrwt>
</event>
<event>
 4      1 +1.5204000e-02 5.36738400e+02 7.81860800e-03 1.00461100e-01
        2 -1    0    0  501    0 +0.0000000000e+00 +0.0000000000e+00 +2.9622539285e+03 2.9622539285e+03 0.0000000000e+00 0.0000e+00 -1.0000e+00
       -2 -1    0    0    0  501 -0.0000000000e+00 -0.0000000000e+00 -2.4313250466e+01 2.4313250466e+01 0.0000000000e+00 0.0000e+00 1.0000e+00
     -556  1    1    2    0    0 +1.3030517919e+02 -6.2609340359e+01 +8.8213829228e+02 9.1600618771e+02 2.0000000000e+02 0.0000e+00 1.0000e+00
      556  1    1    2    0    0 -1.3030517919e+02 +6.2609340359e+01 +2.0558023857e+03 2.0705609912e+03 2.0000000000e+02 0.0000e+00 -1.0000e+00
<mgrwt>
<rscale>  0 0.53673838E+03</rscale>
<asrwt>0</asrwt>
<pdfrwt beam="1">  1        2 0.45573109E+00 0.53673838E+03</pdfrwt>
<pdfrwt beam="2">  1       -2 0.37405024E-02 0.53673838E+03</pdfrwt>
<totfact> 0.64023567E+02</totfact>
</mgrwt>
</event>
<event>
 4      1 +1.5204000e-02 5.53817100e+02 7.81860800e-03 1.00061400e-01
       -2 -1    0    0    0  501 -0.0000000000e+00 +0.0000000000e+00 +3.7770439901e+01 3.7770439901e+01 0.0000000000e+00 0.0000e+00 -1.0000e+00
        2 -1    0    0  501    0 +0.0000000000e+00 -0.0000000000e+00 -2.0301149036e+03 2.0301149036e+03 0.0000000000e+00 0.0000e+00 1.0000e+00
     -556  1    1    2    0    0 +6.2183941299e+01 +1.6607133270e+02 -7.2609634334e+02 7.7373278973e+02 2.0000000000e+02 0.0000e+00 -1.0000e+00
      556  1    1    2    0    0 -6.2183941299e+01 -1.6607133270e+02 -1.2662481204e+03 1.2941525538e+03 2.0000000000e+02 0.0000e+00 1.0000e+00
<mgrwt>
<rscale>  0 0.55381706E+03</rscale>
<asrwt>0</asrwt>
<pdfrwt beam="2">  1        2 0.31232537E+00 0.55381706E+03</pdfrwt>
<pdfrwt beam="1">  1       -2 0.58108370E-02 0.55381706E+03</pdfrwt>
<totfact> 0.10876305E+03</totfact>
</mgrwt>
</event>
<event>
 4      1 +1.5204000e-02 4.98151000e+02 7.81860800e-03 1.01426300e-01
       -2 -1    0    0    0  501 -0.0000000000e+00 +0.0000000000e+00 +3.8233212833e+01 3.8233212833e+01 0.0000000000e+00 0.0000e+00 1.0000e+00
        2 -1    0    0  501    0 +0.0000000000e+00 -0.0000000000e+00 -1.6226363214e+03 1.6226363214e+03 0.0000000000e+00 0.0000e+00 -1.0000e+00
     -556  1    1    2    0    0 +5.3270736949e+01 +1.9949510348e+00 -3.3025737512e+02 3.8975849582e+02 2.0000000000e+02 0.0000e+00 1.0000e+00
      556  1    1    2    0    0 -5.3270736949e+01 -1.9949510348e+00 -1.2541457334e+03 1.2711110384e+03 2.0000000000e+02 0.0000e+00 -1.0000e+00
<mgrwt>
<rscale>  0 0.49815098E+03</rscale>
<asrwt>0</asrwt>
<pdfrwt beam="2">  1        2 0.24963636E+00 0.49815098E+03</pdfrwt>
<pdfrwt beam="1">  1       -2 0.58820328E-02 0.49815098E+03</pdfrwt>
<totfact> 0.17754184E+03</totfact>
</mgrwt>
</event>
<event>
 4      1 +1.5204000e-02 6.95456400e+02 7.81860800e-03 9.72503400e-02
       -2 -1    0    0    0  501 -0.0000000000e+00 +0.0000000000e+00 +1.4699856292e+02 1.4699856292e+02 0.0000000000e+00 0.0000e+00 -1.0000e+00
        2 -1    0    0  501    0 +0.0000000000e+00 -0.0000000000e+00 -8.2255839270e+02 8.2255839270e+02 0.0000000000e+00 0.0000e+00 1.0000e+00
     -556  1    1    2    0    0 -4.2892051714e-01 +9.4677863790e+01 +3.6176760803e+01 2.2421605626e+02 2.0000000000e+02 0.0000e+00 -1.0000e+00
      556  1    1    2    0    0 +4.2892051714e-01 -9.4677863790e+01 -7.1173659058e+02 7.4534089935e+02 2.0000000000e+02 0.0000e+00 1.0000e+00
<mgrwt>
<rscale>  0 0.69545640E+03</rscale>
<asrwt>0</asrwt>
<pdfrwt beam="2">  1        2 0.12654744E+00 0.69545640E+03</pdfrwt>
<pdfrwt beam="1">  1       -2 0.22615164E-01 0.69545640E+03</pdfrwt>
<totfact> 0.57308340E+02</totfact>
</mgrwt>
</event>
<event>
 4      1 +1.5204000e-02 7.95902700e+02 7.81860800e-03 9.56596700e-02
       -1 -1    0    0    0  501 -0.0000000000e+00 +0.0000000000e+00 +3.2308952684e+02 3.2308952684e+02 0.0000000000e+00 0.0000e+00 1.0000e+00
        1 -1    0    0  501    0 +0.0000000000e+00 -0.0000000000e+00 -4.9015910552e+02 4.9015910552e+02 0.0000000000e+00 0.0000e+00 -1.0000e+00
     -556  1    1    2    0    0 +3.1215249337e+01 -3.3499435330e+02 -1.5700217177e+02 4.2171707397e+02 2.0000000000e+02 0.0000e+00 1.0000e+00
      556  1    1    2    0    0 -3.1215249337e+01 +3.3499435330e+02 -1.0067406903e+01 3.9153155839e+02 2.0000000000e+02 0.0000e+00 -1.0000e+00
<mgrwt>
<rscale>  0 0.79590269E+03</rscale>
<asrwt>0</asrwt>
<pdfrwt beam="2">  1        1 0.75409093E-01 0.79590269E+03</pdfrwt>
<pdfrwt beam="1">  1       -1 0.49706081E-01 0.79590269E+03</pdfrwt>
<totfact> 0.18707242E+02</totfact>
</mgrwt>
</event>
<event>
 4      1 +1.5204000e-02 4.30638100e+02 7.81860800e-03 1.03365900e-01
       -2 -1    0    0    0  501 -0.0000000000e+00 +0.0000000000e+00 +1.7883974679e+01 1.7883974679e+01 0.0000000000e+00 0.0000e+00 1.0000e+00
        2 -1    0    0  501    0 +0.0000000000e+00 -0.0000000000e+00 -2.5923936064e+03 2.5923936064e+03 0.0000000000e+00 0.0000e+00 -1.0000e+00
     -556  1    1    2    0    0 +1.5136051976e+00 +1.4981977503e+01 -8.1246544520e+02 8.3685533415e+02 2.0000000000e+02 0.0000e+00 1.0000e+00
      556  1    1    2    0    0 -1.5136051976e+00 -1.4981977503e+01 -1.7620441865e+03 1.7734222469e+03 2.0000000000e+02 0.0000e+00 -1.0000e+00
<mgrwt>
<rscale>  0 0.43063814E+03</rscale>
<asrwt>0</asrwt>
<pdfrwt beam="2">  1        2 0.39882978E+00 0.43063814E+03</pdfrwt>
<pdfrwt beam="1">  1       -2 0.27513808E-02 0.43063814E+03</pdfrwt>
<totfact> 0.16913656E+03</totfact>
</mgrwt>
</event>
<event>
 4      1 +1.5204000e-02 7.73055300e+02 7.81860800e-03 9.59985900e-02
        1 -1    0    0  501    0 +0.0000000000e+00 +0.0000000000e+00 +3.6754837227e+03 3.6754837227e+03 0.0000000000e+00 0.0000e+00 -1.0000e+00
       -1 -1    0    0    0  501 -0.0000000000e+00 -0.0000000000e+00 -4.0648695698e+01 4.0648695698e+01 0.0000000000e+00 0.0000e+00 1.0000e+00
     -556  1    1    2    0    0 -1.4613310667e+02 -2.2246547555e+02 +8.7349354891e+02 9.3479235804e+02 2.0000000000e+02 0.0000e+00 1.0000e+00
      556  1    1    2    0    0 +1.4613310667e+02 +2.2246547555e+02 +2.7613414781e+03 2.7813400604e+03 2.0000000000e+02 0.0000e+00 -1.0000e+00
<mgrwt>
<rscale>  0 0.77305529E+03</rscale>
<asrwt>0</asrwt>
<pdfrwt beam="1">  1        1 0.56545877E+00 0.77305529E+03</pdfrwt>
<pdfrwt beam="2">  1       -1 0.62536484E-02 0.77305529E+03</pdfrwt>
<totfact> 0.25644541E+01</totfact>
</mgrwt>
</event>
<event>
 4      1 +1.5204000e-02 6.78047300e+02 7.81860800e-03 9.75552900e-02
        2 -1    0    0  501    0 +0.0000000000e+00 +0.0000000000e+00 +2.1692276172e+03 2.1692276172e+03 0.0000000000e+00 0.0000e+00 -1.0000e+00
       -2 -1    0    0    0  501 -0.0000000000e+00 -0.0000000000e+00 -5.2985238920e+01 5.2985238920e+01 0.0000000000e+00 0.0000e+00 1.0000e+00
     -556  1    1    2    0    0 +1.4828445096e+02 -2.0753601523e+02 +7.3239651857e+02 8.0091456250e+02 2.0000000000e+02 0.0000e+00 1.0000e+00
      556  1    1    2    0    0 -1.4828445096e+02 +2.0753601523e+02 +1.3838458597e+03 1.4212982936e+03 2.0000000000e+02 0.0000e+00 -1.0000e+00
<mgrwt>
<rscale>  0 0.67804732E+03</rscale>
<asrwt>0</asrwt>
<pdfrwt beam="1">  1        2 0.33372726E+00 0.67804732E+03</pdfrwt>
<pdfrwt beam="2">  1       -2 0.81515769E-02 0.67804732E+03</pdfrwt>
<totfact> 0.53038391E+02</totfact>
</mgrwt>
</event>
<event>
 4      1 +1.5204000e-02 6.00634500e+02 7.81860800e-03 9.90409100e-02
        2 -1    0    0  501    0 +0.0000000000e+00 +0.0000000000e+00 +9.5252431081e+02 9.5252431081e+02 0.0000000000e+00 0.0000e+00 -1.0000e+00
       -2 -1    0    0    0  501 -0.0000000000e+00 -0.0000000000e+00 -9.4685717702e+01 9.4685717702e+01 0.0000000000e+00 0.0000e+00 1.0000e+00
     -556  1    1    2    0    0 +5.5515493988e+01 -6.8644134905e+00 +8.0714910357e+02 8.3343791949e+02 2.0000000000e+02 0.0000e+00 -1.0000e+00
      556  1    1    2    0    0 -5.5515493988e+01 +6.8644134905e+00 +5.0689489531e+01 2.1377210902e+02 2.0000000000e+02 0.0000e+00 1.0000e+00
<mgrwt>
<rscale>  0 0.60063449E+03</rscale>
<asrwt>0</asrwt>
<pdfrwt beam="1">  1        2 0.14654219E+00 0.60063449E+03</pdfrwt>
<pdfrwt beam="2">  1       -2 0.14567034E-01 0.60063449E+03</pdfrwt>
<totfact> 0.10029146E+03</totfact>
</mgrwt>
</event>
<event>
 4      1 +1.5204000e-02 6.32408100e+02 7.81860800e-03 9.84036100e-02
       -2 -1    0    0    0  501 -0.0000000000e+00 +0.0000000000e+00 +3.2969700644e+01 3.2969700644e+01 0.0000000000e+00 0.0000e+00 1.0000e+00
        2 -1    0    0  501    0 +0.0000000000e+00 -0.0000000000e+00 -3.0326329754e+03 3.0326329754e+03 0.0000000000e+00 0.0000e+00 -1.0000e+00
     -556  1    1    2    0    0 -2.1093028269e+02 -1.1943640842e+02 -1.6697270097e+03 1.6990423557e+03 2.0000000000e+02 0.0000e+00 -1.0000e+00
      556  1    1    2    0    0 +2.1093028269e+02 +1.1943640842e+02 -1.3299362651e+03 1.3665603203e+03 2.0000000000e+02 0.0000e+00 1.0000e+00
<mgrwt>
<rscale>  0 0.63240810E+03</rscale>
<asrwt>0</asrwt>
<pdfrwt beam="2">  1        2 0.46655880E+00 0.63240810E+03</pdfrwt>
<pdfrwt beam="1">  1       -2 0.50722629E-02 0.63240810E+03</pdfrwt>
<totfact> 0.35895029E+02</totfact>
</mgrwt>
</event>
<event>
 4      1 +1.5204000e-02 7.39449000e+02 7.81860800e-03 9.65205000e-02
       -2 -1    0    0    0  501 -0.0000000000e+00 +0.0000000000e+00 +1.2531839334e+02 1.2531839334e+02 0.0000000000e+00 0.0000e+00 1.0000e+00
        2 -1    0    0  501    0 +0.0000000000e+00 -0.0000000000e+00 -1.0907911569e+03 1.0907911569e+03 0.0000000000e+00 0.0000e+00 -1.0000e+00
     -556  1    1    2    0    0 +2.3786529216e+02 -6.9543519913e+00 -1.5353399867e+02 3.4670008505e+02 2.0000000000e+02 0.0000e+00 1.0000e+00
      556  1    1    2    0    0 -2.3786529216e+02 +6.9543519913e+00 -8.1193876488e+02 8.6940946518e+02 2.0000000000e+02 0.0000e+00 -1.0000e+00
<mgrwt>
<rscale>  0 0.73944897E+03</rscale>
<asrwt>0</asrwt>
<pdfrwt beam="2">  1        2 0.16781402E+00 0.73944897E+03</pdfrwt>
<pdfrwt beam="1">  1       -2 0.19279754E-01 0.73944897E+03</pdfrwt>
<totfact> 0.50581358E+02</totfact>
</mgrwt>
</event>
<event>
 4      1 +1.5204000e-02 5.46293200e+02 7.81860800e-03 1.00235600e-01
       -2 -1    0    0    0  501 -0.0000000000e+00 +0.0000000000e+00 +1.5841221984e+02 1.5841221984e+02 0.0000000000e+00 0.0000e+00 1.0000e+00
        2 -1    0    0  501    0 +0.0000000000e+00 -0.0000000000e+00 -4.7098053692e+02 4.7098053692e+02 0.0000000000e+00 0.0000e+00 -1.0000e+00
     -556  1    1    2    0    0 +1.7114506047e+01 +3.2278417273e+01 -3.6644422242e+02 4.1906583097e+02 2.0000000000e+02 0.0000e+00 -1.0000e+00
      556  1    1    2    0    0 -1.7114506047e+01 -3.2278417273e+01 +5.3875905343e+01 2.1032692580e+02 2.0000000000e+02 0.0000e+00 1.0000e+00
<mgrwt>
<rscale>  0 0.54629323E+03</rscale>
<asrwt>0</asrwt>
<pdfrwt beam="2">  1        2 0.72458544E-01 0.54629323E+03</pdfrwt>
<pdfrwt beam="1">  1       -2 0.24371111E-01 0.54629323E+03</pdfrwt>
<totfact> 0.99335114E+02</totfact>
</mgrwt>
</event>
<event>
 4      1 +1.5204000e-02 5.47707100e+02 7.81860800e-03 1.00202600e-01
       -2 -1    0    0    0  501 -0.0000000000e+00 +0.0000000000e+00 +1.3726602395e+02 1.3726602395e+02 0.0000000000e+00 0.0000e+00 1.0000e+00
        2 -1    0    0  501    0 +0.0000000000e+00 -0.0000000000e+00 -5.4635340862e+02 5.4635340862e+02 0.0000000000e+00 0.0000e+00 -1.0000e+00
     -556  1    1    2    0    0 +1.3337640551e+02 +5.6646706416e+01 -3.5221412202e+02 4.3017775703e+02 2.0000000000e+02 0.0000e+00 -1.0000e+00
      556  1    1    2    0    0 -1.3337640551e+02 -5.6646706416e+01 -5.6873262657e+01 2.5344167554e+02 2.0000000000e+02 0.0000e+00 1.0000e+00
<mgrwt>
<rscale>  0 0.54770708E+03</rscale>
<asrwt>0</asrwt>
<pdfrwt beam="2">  1        2 0.84054372E-01 0.54770708E+03</pdfrwt>
<pdfrwt beam="1">  1       -2 0.21117850E-01 0.54770708E+03</pdfrwt>
<totfact> 0.10785746E+03</totfact>
</mgrwt>
</event>
<event>
 4      1 +1.5204000e-02 4.99722400e+02 7.81860800e-03 1.01385100e-01
       -1 -1    0    0    0  501 -0.0000000000e+00 +0.0000000000e+00 +4.9108103802e+01 4.9108103802e+01 0.0000000000e+00 0.0000e+00 1.0000e+00
        1 -1    0    0  501    0 +0.0000000000e+00 -0.0000000000e+00 -1.2712893834e+03 1.2712893834e+03 0.0000000000e+00 0.0000e+00 -1.0000e+00
     -556  1    1    2    0    0 +6.1730341553e+01 +9.5957590282e+01 -3.5474876586e+02 4.2292455719e+02 2.0000000000e+02 0.0000e+00 1.0000e+00
      556  1    1    2    0    0 -6.1730341553e+01 -9.5957590282e+01 -8.6743251373e+02 8.9747292999e+02 2.0000000000e+02 0.0000e+00 -1.0000e+00
<mgrwt>
<rscale>  0 0.49972237E+03</rscale>
<asrwt>0</asrwt>
<pdfrwt beam="2">  1        1 0.19558297E+00 0.49972237E+03</pdfrwt>
<pdfrwt beam="1">  1       -1 0.75550935E-02 0.49972237E+03</pdfrwt>
<totfact> 0.95065904E+02</totfact>
</mgrwt>
</event>
<event>
 4      1 +1.5204000e-02 6.74312200e+02 7.81860800e-03 9.76219900e-02
       -1 -1    0    0    0  501 -0.0000000000e+00 +0.0000000000e+00 +2.9593416565e+02 2.9593416565e+02 0.0000000000e+00 0.0000e+00 1.0000e+00
        1 -1    0    0  501    0 +0.0000000000e+00 -0.0000000000e+00 -3.8412005833e+02 3.8412005833e+02 0.0000000000e+00 0.0000e+00 -1.0000e+00
     -556  1    1    2    0    0 -2.5608512700e+02 -8.4387870643e+01 -7.5557072582e+01 3.4410721614e+02 2.0000000000e+02 0.0000e+00 -1.0000e+00
      556  1    1    2    0    0 +2.5608512700e+02 +8.4387870643e+01 -1.2628820093e+01 3.3594700784e+02 2.0000000000e+02 0.0000e+00 1.0000e+00
<mgrwt>
<rscale>  0 0.67431224E+03</rscale>
<asrwt>0</asrwt>
<pdfrwt beam="2">  1        1 0.59095393E-01 0.67431224E+03</pdfrwt>
<pdfrwt beam="1">  1       -1 0.45528333E-01 0.67431224E+03</pdfrwt>
<totfact> 0.30747623E+02</totfact>
</mgrwt>
</event>
<event>
 4      1 +1.5204000e-02 6.93804700e+02 7.81860800e-03 9.72788600e-02
        2 -1    0    0  501    0 +0.0000000000e+00 +0.0000000000e+00 +4.2656008277e+02 4.2656008277e+02 0.0000000000e+00 0.0000e+00 -1.0000e+00
       -2 -1    0    0    0  501 -0.0000000000e+00 -0.0000000000e+00 -2.8212023684e+02 2.8212023684e+02 0.0000000000e+00 0.0000e+00 1.0000e+00
     -556  1    1    2    0    0 +1.8421636389e+02 +1.4554329681e+01 +2.9175538715e+02 3.9908483205e+02 2.0000000000e+02 0.0000e+00 -1.0000e+00
      556  1    1    2    0    0 -1.8421636389e+02 -1.4554329681e+01 -1.4731554122e+02 3.0959548757e+02 2.0000000000e+02 0.0000e+00 1.0000e+00
<mgrwt>
<rscale>  0 0.69380467E+03</rscale>
<asrwt>0</asrwt>
<pdfrwt beam="1">  1        2 0.65624628E-01 0.69380467E+03</pdfrwt>
<pdfrwt beam="2">  1       -2 0.43403114E-01 0.69380467E+03</pdfrwt>
<totfact> 0.37528975E+02</totfact>
</mgrwt>
</event>
<event>
 4      1 +1.5204000e-02 4.49419900e+02 7.81860800e-03 1.02789500e-01
        2 -1    0    0  501    0 +0.0000000000e+00 +0.0000000000e+00 +6.7835448904e+02 6.7835448904e+02 0.0000000000e+00 0.0000e+00 -1.0000e+00
       -2 -1    0    0    0  501 -0.0000000000e+00 -0.0000000000e+00 -7.4436823694e+01 7.4436823694e+01 0.0000000000e+00 0.0000e+00 1.0000e+00
     -556  1    1    2    0    0 +1.3333426383e+01 -5.7327366677e+01 +1.6151240634e+02 2.6372422079e+02 2.0000000000e+02 0.0000e+00 1.0000e+00
      556  1    1    2    0    0 -1.3333426383e+01 +5.7327366677e+01 +4.4240525901e+02 4.8906709195e+02 2.0000000000e+02 0.0000e+00 -1.0000e+00
<mgrwt>
<rscale>  0 0.44941986E+03</rscale>
<asrwt>0</asrwt>
<pdfrwt beam="1">  1        2 0.10436222E+00 0.44941986E+03</pdfrwt>
<pdfrwt beam="2">  1       -2 0.11451819E-01 0.44941986E+03</pdfrwt>
<totfact> 0.23362308E+03</totfact>
</mgrwt>
</event>
<event>
 4      1 +1.5204000e-02 7.31111700e+02 7.81860800e-03 9.66545800e-02
       -2 -1    0    0    0  501 -0.0000000000e+00 +0.0000000000e+00 +7.1919267541e+01 7.1919267541e+01 0.0000000000e+00 0.0000e+00 1.0000e+00
        2 -1    0    0  501    0 +0.0000000000e+00 -0.0000000000e+00 -1.8580708689e+03 1.8580708689e+03 0.0000000000e+00 0.0000e+00 -1.0000e+00
     -556  1    1    2    0    0 -2.2191267877e+02 +1.3719123130e+02 -4.7100107869e+02 5.7437678145e+02 2.0000000000e+02 0.0000e+00 1.0000e+00
      556  1    1    2    0    0 +2.2191267877e+02 -1.3719123130e+02 -1.3151505227e+03 1.3556133550e+03 2.0000000000e+02 0.0000e+00 -1.0000e+00
<mgrwt>
<rscale>  0 0.73111175E+03</rscale>
<asrwt>0</asrwt>
<pdfrwt beam="2">  1        2 0.28585708E+00 0.73111175E+03</pdfrwt>
<pdfrwt beam="1">  1       -2 0.11064502E-01 0.73111175E+03</pdfrwt>
<totfact> 0.47602921E+02</totfact>
</mgrwt>
</event>
<event>
 4      1 +1.5204000e-02 1.02986800e+03 7.81860800e-03 9.27638000e-02
       -2 -1    0    0    0  501 -0.0000000000e+00 +0.0000000000e+00 +9.7699986813e+01 9.7699986813e+01 0.0000000000e+00 0.0000e+00 1.0000e+00
        2 -1    0    0  501    0 +0.0000000000e+00 -0.0000000000e+00 -2.7139910001e+03 2.7139910001e+03 0.0000000000e+00 0.0000e+00 -1.0000e+00
     -556  1    1    2    0    0 -1.5258374533e+02 +3.8810302071e+00 -2.5347690562e+03 2.5472241814e+03 2.0000000000e+02 0.0000e+00 -1.0000e+00
      556  1    1    2    0    0 +1.5258374533e+02 -3.8810302071e+00 -8.1521957009e+01 2.6446680549e+02 2.0000000000e+02 0.0000e+00 1.0000e+00
<mgrwt>
<rscale>  0 0.10298677E+04</rscale>
<asrwt>0</asrwt>
<pdfrwt beam="2">  1        2 0.41753706E+00 0.10298677E+04</pdfrwt>
<pdfrwt beam="1">  1       -2 0.15030768E-01 0.10298677E+04</pdfrwt>
<totfact> 0.92295077E+01</totfact>
</mgrwt>
</event>
<event>
 4      1 +1.5204000e-02 5.35129800e+02 7.81860800e-03 1.00499600e-01
       -2 -1    0    0    0  501 -0.0000000000e+00 +0.0000000000e+00 +9.5427104727e+01 9.5427104727e+01 0.0000000000e+00 0.0000e+00 1.0000e+00
        2 -1    0    0  501    0 +0.0000000000e+00 -0.0000000000e+00 -7.5021638505e+02 7.5021638505e+02 0.0000000000e+00 0.0000e+00 -1.0000e+00
     -556  1    1    2    0    0 -7.7951691447e+01 +8.7608622062e+01 -1.1632957784e+02 2.5939218866e+02 2.0000000000e+02 0.0000e+00 1.0000e+00
      556  1    1    2    0    0 +7.7951691447e+01 -8.7608622062e+01 -5.3845970249e+02 5.8625130112e+02 2.0000000000e+02 0.0000e+00 -1.0000e+00
<mgrwt>
<rscale>  0 0.53512981E+03</rscale>
<asrwt>0</asrwt>
<pdfrwt beam="2">  1        2 0.11541791E+00 0.53512981E+03</pdfrwt>
<pdfrwt beam="1">  1       -2 0.14681093E-01 0.53512981E+03</pdfrwt>
<totfact> 0.13663055E+03</totfact>
</mgrwt>
</event>
<event>
 4      1 +1.5204000e-02 5.76380500e+02 7.81860800e-03 9.95565800e-02
        2 -1    0    0  501    0 +0.0000000000e+00 +0.0000000000e+00 +5.0826874375e+02 5.0826874375e+02 0.0000000000e+00 0.0000e+00 -1.0000e+00
       -2 -1    0    0    0  501 -0.0000000000e+00 -0.0000000000e+00 -1.6340495282e+02 1.6340495282e+02 0.0000000000e+00 0.0000e+00 1.0000e+00
     -556  1    1    2    0    0 -1.1827658918e+02 +1.0682558998e+01 +3.7070989618e+02 4.3764060111e+02 2.0000000000e+02 0.0000e+00 -1.0000e+00
      556  1    1    2    0    0 +1.1827658918e+02 -1.0682558998e+01 -2.5846105257e+01 2.3403309546e+02 2.0000000000e+02 0.0000e+00 1.0000e+00
<mgrwt>
<rscale>  0 0.57638053E+03</rscale>
<asrwt>0</asrwt>
<pdfrwt beam="1">  1        2 0.78195191E-01 0.57638053E+03</pdfrwt>
<pdfrwt beam="2">  1       -2 0.25139224E-01 0.57638053E+03</pdfrwt>
<totfact> 0.86079041E+02</totfact>
</mgrwt>
</event>
<event>
 4      1 +1.5204000e-02 6.08395100e+02 7.81860800e-03 9.88814000e-02
        1 -1    0    0  501    0 +0.0000000000e+00 +0.0000000000e+00 +1.1451596891e+03 1.1451596891e+03 0.0000000000e+00 0.0000e+00 1.0000e+00
       -1 -1    0    0    0  501 -0.0000000000e+00 -0.0000000000e+00 -8.0806315192e+01 8.0806315192e+01 0.0000000000e+00 0.0000e+00 -1.0000e+00
     -556  1    1    2    0    0 +1.6438434097e+02 -6.0281331818e+01 +8.3024598815e+02 8.7175939993e+02 2.0000000000e+02 0.0000e+00 1.0000e+00
      556  1    1    2    0    0 -1.6438434097e+02 +6.0281331818e+01 +2.3410738580e+02 3.5420660441e+02 2.0000000000e+02 0.0000e+00 -1.0000e+00
<mgrwt>
<rscale>  0 0.60839505E+03</rscale>
<asrwt>0</asrwt>
<pdfrwt beam="1">  1        1 0.17617840E+00 0.60839505E+03</pdfrwt>
<pdfrwt beam="2">  1       -1 0.12431742E-01 0.60839505E+03</pdfrwt>
<totfact> 0.53203805E+02</totfact>
</mgrwt>
</event>
<event>
 4      1 +1.5204000e-02 7.76860300e+02 7.81860800e-03 9.59412800e-02
       -1 -1    0    0    0  501 -0.0000000000e+00 +0.0000000000e+00 +9.5227913331e+01 9.5227913331e+01 0.0000000000e+00 0.0000e+00 1.0000e+00
        1 -1    0    0  501    0 +0.0000000000e+00 -0.0000000000e+00 -1.5843879936e+03 1.5843879936e+03 0.0000000000e+00 0.0000e+00 -1.0000e+00
     -556  1    1    2    0    0 -2.1445587837e+02 +7.0126303202e+01 -2.1512356314e+02 3.7038786371e+02 2.0000000000e+02 0.0000e+00 1.0000e+00
      556  1    1    2    0    0 +2.1445587837e+02 -7.0126303202e+01 -1.2740365172e+03 1.3092280432e+03 2.0000000000e+02 0.0000e+00 -1.0000e+00
<mgrwt>
<rscale>  0 0.77686025E+03</rscale>
<asrwt>0</asrwt>
<pdfrwt beam="2">  1        1 0.24375200E+00 0.77686025E+03</pdfrwt>
<pdfrwt beam="1">  1       -1 0.14650448E-01 0.77686025E+03</pdfrwt>
<totfact> 0.19909316E+02</totfact>
</mgrwt>
</event>
<event>
 4      1 +1.5204000e-02 4.90213000e+02 7.81860800e-03 1.01636500e-01
        2 -1    0    0  501    0 +0.0000000000e+00 +0.0000000000e+00 +4.3099663239e+02 4.3099663239e+02 0.0000000000e+00 0.0000e+00 -1.0000e+00
       -2 -1    0    0    0  501 -0.0000000000e+00 -0.0000000000e+00 -1.3939134158e+02 1.3939134158e+02 0.0000000000e+00 0.0000e+00 1.0000e+00
     -556  1    1    2    0    0 +3.5950818756e+01 -1.2241865554e+02 +2.1751375785e+02 3.2185559409e+02 2.0000000000e+02 0.0000e+00 -1.0000e+00
      556  1    1    2    0    0 -3.5950818756e+01 +1.2241865554e+02 +7.4091532965e+01 2.4853237988e+02 2.0000000000e+02 0.0000e+00 1.0000e+00
<mgrwt>
<rscale>  0 0.49021301E+03</rscale>
<asrwt>0</asrwt>
<pdfrwt beam="1">  1        2 0.66307174E-01 0.49021301E+03</pdfrwt>
<pdfrwt beam="2">  1       -2 0.21444822E-01 0.49021301E+03</pdfrwt>
<totfact> 0.13769174E+03</totfact>
</mgrwt>
</event>
<event>
 4      1 +1.5204000e-02 4.53760300e+02 7.81860800e-03 1.02660700e-01
        2 -1    0    0  501    0 +0.0000000000e+00 +0.0000000000e+00 +1.9124512764e+03 1.9124512764e+03 0.0000000000e+00 0.0000e+00 -1.0000e+00
       -2 -1    0    0    0  501 -0.0000000000e+00 -0.0000000000e+00 -2.6915509998e+01 2.6915509998e+01 0.0000000000e+00 0.0000e+00 1.0000e+00
     -556  1    1    2    0    0 +9.4033548383e+01 +3.0547025631e+01 +7.6658967401e+02 7.9839536402e+02 2.0000000000e+02 0.0000e+00 1.0000e+00
      556  1    1    2    0    0 -9.4033548383e+01 -3.0547025631e+01 +1.1189460924e+03 1.1409714224e+03 2.0000000000e+02 0.0000e+00 -1.0000e+00
<mgrwt>
<rscale>  0 0.45376030E+03</rscale>
<asrwt>0</asrwt>
<pdfrwt beam="1">  1        2 0.29422317E+00 0.45376030E+03</pdfrwt>
<pdfrwt beam="2">  1       -2 0.41408492E-02 0.45376030E+03</pdfrwt>
<totfact> 0.21353393E+03</totfact>
</mgrwt>
</event>
<event>
 4      1 +1.5204000e-02 1.07635300e+03 7.81860800e-03 9.22855100e-02
       -1 -1    0    0    0  501 -0.0000000000e+00 +0.0000000000e+00 +2.2277790004e+02 2.2277790004e+02 0.0000000000e+00 0.0000e+00 1.0000e+00
        1 -1    0    0  501    0 +0.0000000000e+00 -0.0000000000e+00 -1.3001015935e+03 1.3001015935e+03 0.0000000000e+00 0.0000e+00 -1.0000e+00
     -556  1    1    2    0    0 +1.6958803502e+02 +3.8721774777e+02 -9.1549131448e+02 1.0280184982e+03 2.0000000000e+02 0.0000e+00 -1.0000e+00
      556  1    1    2    0    0 -1.6958803502e+02 -3.8721774777e+02 -1.6183237900e+02 4.9486099533e+02 2.0000000000e+02 0.0000e+00 1.0000e+00
<mgrwt>
<rscale>  0 0.10763529E+04</rscale>
<asrwt>0</asrwt>
<pdfrwt beam="2">  1        1 0.20001563E+00 0.10763529E+04</pdfrwt>
<pdfrwt beam="1">  1       -1 0.34273523E-01 0.10763529E+04</pdfrwt>
<totfact> 0.72669450E+01</totfact>
</mgrwt>
</event>
<event>
 4      1 +1.5204000e-02 7.76010000e+02 7.81860800e-03 9.59540600e-02
        1 -1    0    0  501    0 +0.0000000000e+00 +0.0000000000e+00 +1.6098318007e+03 1.6098318007e+03 0.0000000000e+00 0.0000e+00 -1.0000e+00
       -1 -1    0    0    0  501 -0.0000000000e+00 -0.0000000000e+00 -9.3517766293e+01 9.3517766293e+01 0.0000000000e+00 0.0000e+00 1.0000e+00
     -556  1    1    2    0    0 -1.6375757259e+02 -1.4349142718e+02 +2.0659536158e+02 3.6067710723e+02 2.0000000000e+02 0.0000e+00 1.0000e+00
      556  1    1    2    0    0 +1.6375757259e+02 +1.4349142718e+02 +1.3097186729e+03 1.3426724598e+03 2.0000000000e+02 0.0000e+00 -1.0000e+00
<mgrwt>
<rscale>  0 0.77600998E+03</rscale>
<asrwt>0</asrwt>
<pdfrwt beam="1">  1        1 0.24766641E+00 0.77600998E+03</pdfrwt>
<pdfrwt beam="2">  1       -1 0.14387350E-01 0.77600998E+03</pdfrwt>
<totfact> 0.19705912E+02</totfact>
</mgrwt>
</event>
<event>
 4      1 +1.5204000e-02 5.28159700e+02 7.81860800e-03 1.00667900e-01
        2 -1    0    0  501    0 +0.0000000000e+00 +0.0000000000e+00 +9.5135506102e+02 9.5135506102e+02 0.0000000000e+00 0.0000e+00 -1.0000e+00
       -2 -1    0    0    0  501 -0.0000000000e+00 -0.0000000000e+00 -7.3304049248e+01 7.3304049248e+01 0.0000000000e+00 0.0000e+00 1.0000e+00
     -556  1    1    2    0    0 +2.3010368926e+00 -1.6959428024e+02 +3.7858216247e+02 4.6053443780e+02 2.0000000000e+02 0.0000e+00 1.0000e+00
      556  1    1    2    0    0 -2.3010368926e+00 +1.6959428024e+02 +4.9946884930e+02 5.6412467246e+02 2.0000000000e+02 0.0000e+00 -1.0000e+00
<mgrwt>
<rscale>  0 0.52815974E+03</rscale>
<asrwt>0</asrwt>
<pdfrwt beam="1">  1        2 0.14636231E+00 0.52815974E+03</pdfrwt>
<pdfrwt beam="2">  1       -2 0.11277547E-01 0.52815974E+03</pdfrwt>
<totfact> 0.15371334E+03</totfact>
</mgrwt>
</event>
<event>
 4      1 +1.5204000e-02 7.58913000e+02 7.81860800e-03 9.62147000e-02
       -1 -1    0    0    0  501 -0.0000000000e+00 +0.0000000000e+00 +2.1044537347e+02 2.1044537347e+02 0.0000000000e+00 0.0000e+00 1.0000e+00
        1 -1    0    0  501    0 +0.0000000000e+00 -0.0000000000e+00 -6.8420250699e+02 6.8420250699e+02 0.0000000000e+00 0.0000e+00 -1.0000e+00
     -556  1    1    2    0    0 +2.9697746245e+02 -1.2010373741e+02 -1.9329711742e+02 4.2424556161e+02 2.0000000000e+02 0.0000e+00 -1.0000e+00
      556  1    1    2    0    0 -2.9697746245e+02 +1.2010373741e+02 -2.8046001611e+02 4.7040231885e+02 2.0000000000e+02 0.0000e+00 1.0000e+00
<mgrwt>
<rscale>  0 0.75891304E+03</rscale>
<asrwt>0</asrwt>
<pdfrwt beam="2">  1        1 0.10526192E+00 0.75891304E+03</pdfrwt>
<pdfrwt beam="1">  1       -1 0.32376212E-01 0.75891304E+03</pdfrwt>
<totfact> 0.25426053E+02</totfact>
</mgrwt>
</event>
<event>
 4      1 +1.5204000e-02 7.69376200e+02 7.81860800e-03 9.60543300e-02
       -2 -1    0    0    0  501 -0.0000000000e+00 +0.0000000000e+00 +1.5618853001e+02 1.5618853001e+02 0.0000000000e+00 0.0000e+00 1.0000e+00
        2 -1    0    0  501    0 +0.0000000000e+00 -0.0000000000e+00 -9.4747621812e+02 9.4747621812e+02 0.0000000000e+00 0.0000e+00 -1.0000e+00
     -556  1    1    2    0    0 -2.5199123671e+02 +1.8857136386e+02 -5.3117250528e+02 6.4900152004e+02 2.0000000000e+02 0.0000e+00 1.0000e+00
      556  1    1    2    0    0 +2.5199123671e+02 -1.8857136386e+02 -2.6011518282e+02 4.5466322809e+02 2.0000000000e+02 0.0000e+00 -1.0000e+00
<mgrwt>
<rscale>  0 0.76937616E+03</rscale>
<asrwt>0</asrwt>
<pdfrwt beam="2">  1        2 0.14576557E+00 0.76937616E+03</pdfrwt>
<pdfrwt beam="1">  1       -2 0.24029005E-01 0.76937616E+03</pdfrwt>
<totfact> 0.42186366E+02</totfact>
</mgrwt>
</event>
<event>
 4      1 +1.5204000e-02 6.04592700e+02 7.81860800e-03 9.89592300e-02
       -2 -1    0    0    0  501 -0.0000000000e+00 +0.0000000000e+00 +1.5972301976e+02 1.5972301976e+02 0.0000000000e+00 0.0000e+00 -1.0000e+00
        2 -1    0    0  501    0 +0.0000000000e+00 -0.0000000000e+00 -5.7213472380e+02 5.7213472380e+02 0.0000000000e+00 0.0000e+00 1.0000e+00
     -556  1    1    2    0    0 +7.6911726200e+01 +1.9682726720e+02 -3.0548653730e+02 4.2187487625e+02 2.0000000000e+02 0.0000e+00 1.0000e+00
      556  1    1    2    0    0 -7.6911726200e+01 -1.9682726720e+02 -1.0692516675e+02 3.0998286731e+02 2.0000000000e+02 0.0000e+00 -1.0000e+00
<mgrwt>
<rscale>  0 0.60459271E+03</rscale>
<asrwt>0</asrwt>
<pdfrwt beam="2">  1        2 0.88020726E-01 0.60459271E+03</pdfrwt>
<pdfrwt beam="1">  1       -2 0.24572772E-01 0.60459271E+03</pdfrwt>
<totfact> 0.78048778E+02</totfact>
</mgrwt>
</event>
<event>
 4      1 +1.5204000e-02 4.30880000e+02 7.81860800e-03 1.03358200e-01
        2 -1    0    0  501    0 +0.0000000000e+00 +0.0000000000e+00 +2.6301438099e+03 2.6301438099e+03 0.0000000000e+00 0.0000e+00 -1.0000e+00
       -2 -1    0    0    0  501 -0.0000000000e+00 -0.0000000000e+00 -1.7647095851e+01 1.7647095851e+01 0.0000000000e+00 0.0000e+00 1.0000e+00
     -556  1    1    2    0    0 +1.3885874195e+01 -5.2978970875e+01 +9.4715228045e+02 9.6958601022e+02 2.0000000000e+02 0.0000e+00 1.0000e+00
      556  1    1    2    0    0 -1.3885874195e+01 +5.2978970875e+01 +1.6653444336e+03 1.6782048955e+03 2.0000000000e+02 0.0000e+00 -1.0000e+00
<mgrwt>
<rscale>  0 0.43088003E+03</rscale>
<asrwt>0</asrwt>
<pdfrwt beam="1">  1        2 0.40463720E+00 0.43088003E+03</pdfrwt>
<pdfrwt beam="2">  1       -2 0.27149399E-02 0.43088003E+03</pdfrwt>
<totfact> 0.16428965E+03</totfact>
</mgrwt>
</event>
<event>
 4      1 +1.5204000e-02 5.54536700e+02 7.81860800e-03 1.00044900e-01
       -1 -1    0    0    0  501 -0.0000000000e+00 +0.0000000000e+00 +3.5667513989e+02 3.5667513989e+02 0.0000000000e+00 0.0000e+00 1.0000e+00
        1 -1    0    0  501    0 +0.0000000000e+00 -0.0000000000e+00 -2.1553992287e+02 2.1553992287e+02 0.0000000000e+00 0.0000e+00 -1.0000e+00
     -556  1    1    2    0    0 +6.6639949431e+00 +1.7067988991e+02 -1.9989441172e+01 2.6377189275e+02 2.0000000000e+02 0.0000e+00 -1.0000e+00
      556  1    1    2    0    0 -6.6639949431e+00 -1.7067988991e+02 +1.6112465819e+02 3.0844317001e+02 2.0000000000e+02 0.0000e+00 1.0000e+00
<mgrwt>
<rscale>  0 0.55453668E+03</rscale>
<asrwt>0</asrwt>
<pdfrwt beam="2">  1        1 0.33159988E-01 0.55453668E+03</pdfrwt>
<pdfrwt beam="1">  1       -1 0.54873098E-01 0.55453668E+03</pdfrwt>
<totfact> 0.45831266E+02</totfact>
</mgrwt>
</event>
<event>
 4      1 +1.5204000e-02 5.62055100e+02 7.81860800e-03 9.98741500e-02
        2 -1    0    0  501    0 +0.0000000000e+00 +0.0000000000e+00 +7.2972504273e+02 7.2972504273e+02 0.0000000000e+00 0.0000e+00 -1.0000e+00
       -2 -1    0    0    0  501 -0.0000000000e+00 -0.0000000000e+00 -1.0822771261e+02 1.0822771261e+02 0.0000000000e+00 0.0000e+00 1.0000e+00
     -556  1    1    2    0    0 +5.3136032954e+01 +1.9012653245e+02 +3.1406090963e+02 4.2143302113e+02 2.0000000000e+02 0.0000e+00 -1.0000e+00
      556  1    1    2    0    0 -5.3136032954e+01 -1.9012653245e+02 +3.0743642049e+02 4.1651973421e+02 2.0000000000e+02 0.0000e+00 1.0000e+00
<mgrwt>
<rscale>  0 0.56205506E+03</rscale>
<asrwt>0</asrwt>
<pdfrwt beam="1">  1        2 0.11226539E+00 0.56205506E+03</pdfrwt>
<pdfrwt beam="2">  1       -2 0.16650418E-01 0.56205506E+03</pdfrwt>
<totfact> 0.11439045E+03</totfact>
</mgrwt>
</event>
<event>
 4      1 +1.5204000e-02 7.68457600e+02 7.81860800e-03 9.60683000e-02
        4 -1    0    0  501    0 +0.0000000000e+00 +0.0000000000e+00 +2.1452805161e+02 2.1452805161e+02 0.0000000000e+00 0.0000e+00 -1.0000e+00
       -4 -1    0    0    0  501 -0.0000000000e+00 -0.0000000000e+00 -6.8816992968e+02 6.8816992968e+02 0.0000000000e+00 0.0000e+00 1.0000e+00
     -556  1    1    2    0    0 +8.9866683551e+01 -1.5915701679e+02 -5.5685561530e+02 6.1926985483e+02 2.0000000000e+02 0.0000e+00 1.0000e+00
      556  1    1    2    0    0 -8.9866683551e+01 +1.5915701679e+02 +8.3213737236e+01 2.8342812646e+02 2.0000000000e+02 0.0000e+00 -1.0000e+00
<mgrwt>
<rscale>  0 0.76845756E+03</rscale>
<asrwt>0</asrwt>
<pdfrwt beam="1">  1        4 0.33004315E-01 0.76845756E+03</pdfrwt>
<pdfrwt beam="2">  1       -4 0.10587230E+00 0.76845756E+03</pdfrwt>
<totfact> 0.12788478E+01</totfact>
</mgrwt>
</event>
<event>
 4      1 +1.5204000e-02 5.43750400e+02 7.81860800e-03 1.00295100e-01
        3 -1    0    0  501    0 +0.0000000000e+00 +0.0000000000e+00 +4.3541939457e+02 4.3541939457e+02 0.0000000000e+00 0.0000e+00 1.0000e+00
       -3 -1    0    0    0  501 -0.0000000000e+00 -0.0000000000e+00 -1.6975846449e+02 1.6975846449e+02 0.0000000000e+00 0.0000e+00 -1.0000e+00
     -556  1    1    2    0    0 +1.5213020860e+01 -1.4253466480e+02 +4.1461057438e+00 2.4609907937e+02 2.0000000000e+02 0.0000e+00 -1.0000e+00
      556  1    1    2    0    0 -1.5213020860e+01 +1.4253466480e+02 +2.6151482434e+02 3.5907877969e+02 2.0000000000e+02 0.0000e+00 1.0000e+00
<mgrwt>
<rscale>  0 0.54375041E+03</rscale>
<asrwt>0</asrwt>
<pdfrwt beam="1">  1        3 0.66987599E-01 0.54375041E+03</pdfrwt>
<pdfrwt beam="2">  1       -3 0.26116687E-01 0.54375041E+03</pdfrwt>
<totfact> 0.79109650E+01</totfact>
</mgrwt>
</event>
<event>
 4      1 +1.5204000e-02 7.93693100e+02 7.81860800e-03 9.56919100e-02
        2 -1    0    0  501    0 +0.0000000000e+00 +0.0000000000e+00 +9.7264999798e+02 9.7264999798e+02 0.0000000000e+00 0.0000e+00 1.0000e+00
       -2 -1    0    0    0  501 -0.0000000000e+00 -0.0000000000e+00 -1.6191557500e+02 1.6191557500e+02 0.0000000000e+00 0.0000e+00 -1.0000e+00
     -556  1    1    2    0    0 +2.6296564091e+02 +6.0678835172e+01 +1.0329636873e+02 3.5142992066e+02 2.0000000000e+02 0.0000e+00 -1.0000e+00
      556  1    1    2    0    0 -2.6296564091e+02 -6.0678835172e+01 +7.0743805425e+02 7.8313565232e+02 2.0000000000e+02 0.0000e+00 1.0000e+00
<mgrwt>
<rscale>  0 0.79369310E+03</rscale>
<asrwt>0</asrwt>
<pdfrwt beam="1">  1        2 0.14963846E+00 0.79369310E+03</pdfrwt>
<pdfrwt beam="2">  1       -2 0.24910089E-01 0.79369310E+03</pdfrwt>
<totfact> 0.38034697E+02</totfact>
</mgrwt>
</event>
<event>
 4      1 +1.5204000e-02 7.96105500e+02 7.81860800e-03 9.56567100e-02
       -2 -1    0    0    0  501 -0.0000000000e+00 +0.0000000000e+00 +3.6517310232e+02 3.6517310232e+02 0.0000000000e+00 0.0000e+00 1.0000e+00
        2 -1    0    0  501    0 +0.0000000000e+00 -0.0000000000e+00 -4.3389279807e+02 4.3389279807e+02 0.0000000000e+00 0.0000e+00 -1.0000e+00
     -556  1    1    2    0    0 +5.5465530963e+01 +2.3090676296e+02 +2.1566809972e+02 3.7803053784e+02 2.0000000000e+02 0.0000e+00 -1.0000e+00
      556  1    1    2    0    0 -5.5465530963e+01 -2.3090676296e+02 -2.8438779546e+02 4.2103536255e+02 2.0000000000e+02 0.0000e+00 1.0000e+00
<mgrwt>
<rscale>  0 0.79610547E+03</rscale>
<asrwt>0</asrwt>
<pdfrwt beam="2">  1        2 0.66752738E-01 0.79610547E+03</pdfrwt>
<pdfrwt beam="1">  1       -2 0.56180477E-01 0.79610547E+03</pdfrwt>
<totfact> 0.21729293E+02</totfact>
</mgrwt>
</event>
<event>
 4      1 +1.5204000e-02 4.87330600e+02 7.81860800e-03 1.01714000e-01
        2 -1    0    0  501    0 +0.0000000000e+00 +0.0000000000e+00 +5.7185339159e+02 5.7185339159e+02 0.0000000000e+00 0.0000e+00 -1.0000e+00
       -2 -1    0    0    0  501 -0.0000000000e+00 -0.0000000000e+00 -1.0382515714e+02 1.0382515714e+02 0.0000000000e+00 0.0000e+00 1.0000e+00
     -556  1    1    2    0    0 +8.4522350010e+01 -1.6378016672e+00 +3.8732031614e+02 4.4403123464e+02 2.0000000000e+02 0.0000e+00 -1.0000e+00
      556  1    1    2    0    0 -8.4522350010e+01 +1.6378016672e+00 +8.0707918310e+01 2.3164731409e+02 2.0000000000e+02 0.0000e+00 1.0000e+00
<mgrwt>
<rscale>  0 0.48733056E+03</rscale>
<asrwt>0</asrwt>
<pdfrwt beam="1">  1        2 0.87977442E-01 0.48733056E+03</pdfrwt>
<pdfrwt beam="2">  1       -2 0.15973102E-01 0.48733056E+03</pdfrwt>
<totfact> 0.16524594E+03</totfact>
</mgrwt>
</event>
<event>
 4      1 +1.5204000e-02 5.21340300e+02 7.81860800e-03 1.00835400e-01
       -2 -1    0    0    0  501 -0.0000000000e+00 +0.0000000000e+00 +3.6680788169e+01 3.6680788169e+01 0.0000000000e+00 0.0000e+00 1.0000e+00
        2 -1    0    0  501    0 +0.0000000000e+00 -0.0000000000e+00 -1.8524391897e+03 1.8524391897e+03 0.0000000000e+00 0.0000e+00 -1.0000e+00
     -556  1    1    2    0    0 +1.0503717045e+02 +1.2984327766e+02 -9.3519957166e+02 9.7081940791e+02 2.0000000000e+02 0.0000e+00 1.0000e+00
      556  1    1    2    0    0 -1.0503717045e+02 -1.2984327766e+02 -8.8055882986e+02 9.1830056995e+02 2.0000000000e+02 0.0000e+00 -1.0000e+00
<mgrwt>
<rscale>  0 0.52134031E+03</rscale>
<asrwt>0</asrwt>
<pdfrwt beam="2">  1        2 0.28499061E+00 0.52134031E+03</pdfrwt>
<pdfrwt beam="1">  1       -2 0.56431989E-02 0.52134031E+03</pdfrwt>
<totfact> 0.14220675E+03</totfact>
</mgrwt>
</event>
<event>
 4      1 +1.5204000e-02 6.68430600e+02 7.81860800e-03 9.77279700e-02
       -2 -1    0    0    0  501 -0.0000000000e+00 +0.0000000000e+00 +6.0078311730e+01 6.0078311730e+01 0.0000000000e+00 0.0000e+00 -1.0000e+00
        2 -1    0    0  501    0 +0.0000000000e+00 -0.0000000000e+00 -1.8592378026e+03 1.8592378026e+03 0.0000000000e+00 0.0000e+00 1.0000e+00
     -556  1    1    2    0    0 -9.5262478845e+01 +7.5197714137e+01 -1.5849325246e+03 1.6021050976e+03 2.0000000000e+02 0.0000e+00 1.0000e+00
      556  1    1    2    0    0 +9.5262478845e+01 -7.5197714137e+01 -2.1422696629e+02 3.1721101679e+02 2.0000000000e+02 0.0000e+00 -1.0000e+00
<mgrwt>
<rscale>  0 0.66843060E+03</rscale>
<asrwt>0</asrwt>
<pdfrwt beam="2">  1        2 0.28603653E+00 0.66843060E+03</pdfrwt>
<pdfrwt beam="1">  1       -2 0.92428189E-02 0.66843060E+03</pdfrwt>
<totfact> 0.63973407E+02</totfact>
</mgrwt>
</event>
<event>
 4      1 +1.5204000e-02 6.26284900e+02 7.81860800e-03 9.85232500e-02
        1 -1    0    0  501    0 +0.0000000000e+00 +0.0000000000e+00 +1.3768329409e+03 1.3768329409e+03 0.0000000000e+00 0.0000e+00 1.0000e+00
       -1 -1    0    0    0  501 -0.0000000000e+00 -0.0000000000e+00 -7.1220113359e+01 7.1220113359e+01 0.0000000000e+00 0.0000e+00 -1.0000e+00
     -556  1    1    2    0    0 +1.3650316535e+02 -1.9855651780e+02 +6.5135654045e+02 7.2271927309e+02 2.0000000000e+02 0.0000e+00 1.0000e+00
      556  1    1    2    0    0 -1.3650316535e+02 +1.9855651780e+02 +6.5425628713e+02 7.2533378121e+02 2.0000000000e+02 0.0000e+00 -1.0000e+00
<mgrwt>
<rscale>  0 0.62628491E+03</rscale>
<asrwt>0</asrwt>
<pdfrwt beam="1">  1        1 0.21182043E+00 0.62628491E+03</pdfrwt>
<pdfrwt beam="2">  1       -1 0.10956941E-01 0.62628491E+03</pdfrwt>
<totfact> 0.44499021E+02</totfact>
</mgrwt>
</event>
<event>
 4      1 +1.5204000e-02 9.13943900e+02 7.81860800e-03 9.40831700e-02
        1 -1    0    0  501    0 +0.0000000000e+00 +0.0000000000e+00 +4.6636129709e+02 4.6636129709e+02 0.0000000000e+00 0.0000e+00 -1.0000e+00
       -1 -1    0    0    0  501 -0.0000000000e+00 -0.0000000000e+00 -4.4777168556e+02 4.4777168556e+02 0.0000000000e+00 0.0000e+00 1.0000e+00
     -556  1    1    2    0    0 -1.6082057427e+02 -3.7776844388e+02 -6.5555466330e+00 4.5674416197e+02 2.0000000000e+02 0.0000e+00 1.0000e+00
      556  1    1    2    0    0 +1.6082057427e+02 +3.7776844388e+02 +2.5145158160e+01 4.5738882068e+02 2.0000000000e+02 0.0000e+00 -1.0000e+00
<mgrwt>
<rscale>  0 0.91394395E+03</rscale>
<asrwt>0</asrwt>
<pdfrwt beam="1">  1        1 0.71747892E-01 0.91394395E+03</pdfrwt>
<pdfrwt beam="2">  1       -1 0.68887952E-01 0.91394395E+03</pdfrwt>
<totfact> 0.10479611E+02</totfact>
</mgrwt>
</event>
<event>
 4      1 +1.5204000e-02 1.22222800e+03 7.81860800e-03 9.09362000e-02
        2 -1    0    0  501    0 +0.0000000000e+00 +0.0000000000e+00 +1.5404267300e+03 1.5404267300e+03 0.0000000000e+00 0.0000e+00 -1.0000e+00
       -2 -1    0    0    0  501 -0.0000000000e+00 -0.0000000000e+00 -2.4243934033e+02 2.4243934033e+02 0.0000000000e+00 0.0000e+00 1.0000e+00
     -556  1    1    2    0    0 +3.8523777294e+02 -3.1152161397e+02 +2.1625747591e+02 5.7638628849e+02 2.0000000000e+02 0.0000e+00 1.0000e+00
      556  1    1    2    0    0 -3.8523777294e+02 +3.1152161397e+02 +1.0817299137e+03 1.2064797818e+03 2.0000000000e+02 0.0000e+00 -1.0000e+00
<mgrwt>
<rscale>  0 0.12222275E+04</rscale>
<asrwt>0</asrwt>
<pdfrwt beam="1">  1        2 0.23698872E+00 0.12222275E+04</pdfrwt>
<pdfrwt beam="2">  1       -2 0.37298361E-01 0.12222275E+04</pdfrwt>
<totfact> 0.80394970E+01</totfact>
</mgrwt>
</event>
<event>
 4      1 +1.5204000e-02 6.64507800e+02 7.81860800e-03 9.77993100e-02
       -2 -1    0    0    0  501 -0.0000000000e+00 +0.0000000000e+00 +1.2758366366e+02 1.2758366366e+02 0.0000000000e+00 0.0000e+00 -1.0000e+00
        2 -1    0    0  501    0 +0.0000000000e+00 -0.0000000000e+00 -8.6525708562e+02 8.6525708562e+02 0.0000000000e+00 0.0000e+00 1.0000e+00
     -556  1    1    2    0    0 -1.0549842106e+02 +2.4286365786e+02 -3.4383583264e+02 4.7784490472e+02 2.0000000000e+02 0.0000e+00 -1.0000e+00
      556  1    1    2    0    0 +1.0549842106e+02 -2.4286365786e+02 -3.9383758932e+02 5.1499584456e+02 2.0000000000e+02 0.0000e+00 1.0000e+00
<mgrwt>
<rscale>  0 0.66450784E+03</rscale>
<asrwt>0</asrwt>
<pdfrwt beam="2">  1        2 0.13311647E+00 0.66450784E+03</pdfrwt>
<pdfrwt beam="1">  1       -2 0.19628257E-01 0.66450784E+03</pdfrwt>
<totfact> 0.68735690E+02</totfact>
</mgrwt>
</event>
<event>
 4      1 +1.5204000e-02 5.00264600e+02 7.81860800e-03 1.01371000e-01
        1 -1    0    0  501    0 +0.0000000000e+00 +0.0000000000e+00 +4.5518313932e+02 4.5518313932e+02 0.0000000000e+00 0.0000e+00 -1.0000e+00
       -1 -1    0    0    0  501 -0.0000000000e+00 -0.0000000000e+00 -1.3745276258e+02 1.3745276258e+02 0.0000000000e+00 0.0000e+00 1.0000e+00
     -556  1    1    2    0    0 -1.3782824758e+02 -4.4671593866e+01 +2.0586443525e+02 3.2151569609e+02 2.0000000000e+02 0.0000e+00 -1.0000e+00
      556  1    1    2    0    0 +1.3782824758e+02 +4.4671593866e+01 +1.1186594149e+02 2.7112020580e+02 2.0000000000e+02 0.0000e+00 1.0000e+00
<mgrwt>
<rscale>  0 0.50026465E+03</rscale>
<asrwt>0</asrwt>
<pdfrwt beam="1">  1        1 0.70028175E-01 0.50026465E+03</pdfrwt>
<pdfrwt beam="2">  1       -1 0.21146579E-01 0.50026465E+03</pdfrwt>
<totfact> 0.94261217E+02</totfact>
</mgrwt>
</event>
<event>
 4      1 +1.5204000e-02 5.17077300e+02 7.81860800e-03 1.00941500e-01
       -2 -1    0    0    0  501 -0.0000000000e+00 +0.0000000000e+00 +5.7318435304e+01 5.7318435304e+01 0.0000000000e+00 0.0000e+00 1.0000e+00
        2 -1    0    0  501    0 +0.0000000000e+00 -0.0000000000e+00 -1.1661558826e+03 1.1661558826e+03 0.0000000000e+00 0.0000e+00 -1.0000e+00
     -556  1    1    2    0    0 +2.0183561154e+01 -1.1613860063e+02 -2.8519173183e+02 3.6773614808e+02 2.0000000000e+02 0.0000e+00 1.0000e+00
      556  1    1    2    0    0 -2.0183561154e+01 +1.1613860063e+02 -8.2364571547e+02 8.5573816983e+02 2.0000000000e+02 0.0000e+00 -1.0000e+00
<mgrwt>
<rscale>  0 0.51707729E+03</rscale>
<asrwt>0</asrwt>
<pdfrwt beam="2">  1        2 0.17940858E+00 0.51707729E+03</pdfrwt>
<pdfrwt beam="1">  1       -2 0.88182218E-02 0.51707729E+03</pdfrwt>
<totfact> 0.16881149E+03</totfact>
</mgrwt>
</event>
<event>
 4      1 +1.5204000e-02 4.80676000e+02 7.81860800e-03 1.01895000e-01
        2 -1    0    0  501    0 +0.0000000000e+00 +0.0000000000e+00 +1.8810167026e+03 1.8810167026e+03 0.0000000000e+00 0.0000e+00 -1.0000e+00
       -2 -1    0    0    0  501 -0.0000000000e+00 -0.0000000000e+00 -3.0708054161e+01 3.0708054161e+01 0.0000000000e+00 0.0000e+00 1.0000e+00
     -556  1    1    2    0    0 -7.8791390504e+00 +1.2554111543e+02 +1.1003169021e+03 1.1253976797e+03 2.0000000000e+02 0.0000e+00 -1.0000e+00
      556  1    1    2    0    0 +7.8791390504e+00 -1.2554111543e+02 +7.4999174634e+02 7.8632707703e+02 2.0000000000e+02 0.0000e+00 1.0000e+00
<mgrwt>
<rscale>  0 0.48067604E+03</rscale>
<asrwt>0</asrwt>
<pdfrwt beam="1">  1        2 0.28938709E+00 0.48067604E+03</pdfrwt>
<pdfrwt beam="2">  1       -2 0.47243175E-02 0.48067604E+03</pdfrwt>
<totfact> 0.18110623E+03</totfact>
</mgrwt>
</event>
<event>
 4      1 +1.5204000e-02 5.68564600e+02 7.81860800e-03 9.97286000e-02
       -2 -1    0    0    0  501 -0.0000000000e+00 +0.0000000000e+00 +4.0252661453e+01 4.0252661453e+01 0.0000000000e+00 0.0000e+00 1.0000e+00
        2 -1    0    0  501    0 +0.0000000000e+00 -0.0000000000e+00 -2.0077286833e+03 2.0077286833e+03 0.0000000000e+00 0.0000e+00 -1.0000e+00
     -556  1    1    2    0    0 -8.4479013936e+01 +1.2904813149e+02 -1.4537471641e+03 1.4755239548e+03 2.0000000000e+02 0.0000e+00 -1.0000e+00
      556  1    1    2    0    0 +8.4479013936e+01 -1.2904813149e+02 -5.1372885774e+02 5.7245738995e+02 2.0000000000e+02 0.0000e+00 1.0000e+00
<mgrwt>
<rscale>  0 0.56856459E+03</rscale>
<asrwt>0</asrwt>
<pdfrwt beam="2">  1        2 0.30888135E+00 0.56856459E+03</pdfrwt>
<pdfrwt beam="1">  1       -2 0.61927168E-02 0.56856459E+03</pdfrwt>
<totfact> 0.10114353E+03</totfact>
</mgrwt>
</event>
<event>
 4      1 +1.5204000e-02 4.97200100e+02 7.81860800e-03 1.01451200e-01
       -2 -1    0    0    0  501 -0.0000000000e+00 +0.0000000000e+00 +1.8823613825e+02 1.8823613825e+02 0.0000000000e+00 0.0000e+00 1.0000e+00
        2 -1    0    0  501    0 +0.0000000000e+00 -0.0000000000e+00 -3.2832158299e+02 3.2832158299e+02 0.0000000000e+00 0.0000e+00 -1.0000e+00
     -556  1    1    2    0    0 +3.0336061044e+01 +7.1923921073e+01 -2.0025658179e+02 2.9359159656e+02 2.0000000000e+02 0.0000e+00 -1.0000e+00
      556  1    1    2    0    0 -3.0336061044e+01 -7.1923921073e+01 +6.0171137048e+01 2.2296612468e+02 2.0000000000e+02 0.0000e+00 1.0000e+00
<mgrwt>
<rscale>  0 0.49720011E+03</rscale>
<asrwt>0</asrwt>
<pdfrwt beam="2">  1        2 0.50511012E-01 0.49720011E+03</pdfrwt>
<pdfrwt beam="1">  1       -2 0.28959406E-01 0.49720011E+03</pdfrwt>
<totfact> 0.10874498E+03</totfact>
</mgrwt>
</event>
<event>
 4      1 +1.5204000e-02 4.98556000e+02 7.81860800e-03 1.01415700e-01
       -2 -1    0    0    0  501 -0.0000000000e+00 +0.0000000000e+00 +5.1471700009e+01 5.1471700009e+01 0.0000000000e+00 0.0000e+00 1.0000e+00
        2 -1    0    0  501    0 +0.0000000000e+00 -0.0000000000e+00 -1.2072561844e+03 1.2072561844e+03 0.0000000000e+00 0.0000e+00 -1.0000e+00
     -556  1    1    2    0    0 +1.0039362076e+02 +3.9299838372e+01 -3.1898349839e+02 3.9162970856e+02 2.0000000000e+02 0.0000e+00 1.0000e+00
      556  1    1    2    0    0 -1.0039362076e+02 -3.9299838372e+01 -8.3680098605e+02 8.6709817589e+02 2.0000000000e+02 0.0000e+00 -1.0000e+00
<mgrwt>
<rscale>  0 0.49855603E+03</rscale>
<asrwt>0</asrwt>
<pdfrwt beam="2">  1        2 0.18573172E+00 0.49855603E+03</pdfrwt>
<pdfrwt beam="1">  1       -2 0.79187229E-02 0.49855603E+03</pdfrwt>
<totfact> 0.18964575E+03</totfact>
</mgrwt>
</event>
<event>
 4      1 +1.5204000e-02 6.01893400e+02 7.81860800e-03 9.90148600e-02
        2 -1    0    0  501    0 +0.0000000000e+00 +0.0000000000e+00 +1.4654302670e+03 1.4654302670e+03 0.0000000000e+00 0.0000e+00 1.0000e+00
       -2 -1    0    0    0  501 -0.0000000000e+00 -0.0000000000e+00 -6.1803627639e+01 6.1803627639e+01 0.0000000000e+00 0.0000e+00 -1.0000e+00
     -556  1    1    2    0    0 +4.7599943745e+01 -1.1801715121e+02 +1.1722573977e+03 1.1959854552e+03 2.0000000000e+02 0.0000e+00 1.0000e+00
      556  1    1    2    0    0 -4.7599943745e+01 +1.1801715121e+02 +2.3136924161e+02 3.3124843938e+02 2.0000000000e+02 0.0000e+00 -1.0000e+00
<mgrwt>
<rscale>  0 0.60189337E+03</rscale>
<asrwt>0</asrwt>
<pdfrwt beam="1">  1        2 0.22545078E+00 0.60189337E+03</pdfrwt>
<pdfrwt beam="2">  1       -2 0.95082515E-02 0.60189337E+03</pdfrwt>
<totfact> 0.10069010E+03</totfact>
</mgrwt>
</event>
<event>
 4      1 +1.5204000e-02 5.00569100e+02 7.81860800e-03 1.01363000e-01
        3 -1    0    0  501    0 +0.0000000000e+00 +0.0000000000e+00 +1.3046603844e+03 1.3046603844e+03 0.0000000000e+00 0.0000e+00 -1.0000e+00
       -3 -1    0    0    0  501 -0.0000000000e+00 -0.0000000000e+00 -4.8014301594e+01 4.8014301594e+01 0.0000000000e+00 0.0000e+00 1.0000e+00
     -556  1    1    2    0    0 +1.4546105477e+02 +3.6584795741e+01 +5.9578431886e+02 6.4610859794e+02 2.0000000000e+02 0.0000e+00 -1.0000e+00
      556  1    1    2    0    0 -1.4546105477e+02 -3.6584795741e+01 +6.6086176391e+02 7.0656608801e+02 2.0000000000e+02 0.0000e+00 1.0000e+00
<mgrwt>
<rscale>  0 0.50056910E+03</rscale>
<asrwt>0</asrwt>
<pdfrwt beam="1">  1        3 0.20071696E+00 0.50056910E+03</pdfrwt>
<pdfrwt beam="2">  1       -3 0.73868166E-02 0.50056910E+03</pdfrwt>
<totfact> 0.49501537E+01</totfact>
</mgrwt>
</event>
<event>
 4      1 +1.5204000e-02 6.91439400e+02 7.81860800e-03 9.73198500e-02
       -2 -1    0    0    0  501 -0.0000000000e+00 +0.0000000000e+00 +5.5352921228e+01 5.5352921228e+01 0.0000000000e+00 0.0000e+00 1.0000e+00
        2 -1    0    0  501    0 +0.0000000000e+00 -0.0000000000e+00 -2.1592739121e+03 2.1592739121e+03 0.0000000000e+00 0.0000e+00 -1.0000e+00
     -556  1    1    2    0    0 -1.0494166243e+02 -2.6053513046e+02 -1.1324050051e+03 1.1837366271e+03 2.0000000000e+02 0.0000e+00 -1.0000e+00
      556  1    1    2    0    0 +1.0494166243e+02 +2.6053513046e+02 -9.7151598574e+02 1.0308902062e+03 2.0000000000e+02 0.0000e+00 1.0000e+00
<mgrwt>
<rscale>  0 0.69143942E+03</rscale>
<asrwt>0</asrwt>
<pdfrwt beam="2">  1        2 0.33219601E+00 0.69143942E+03</pdfrwt>
<pdfrwt beam="1">  1       -2 0.85158335E-02 0.69143942E+03</pdfrwt>
<totfact> 0.50021893E+02</totfact>
</mgrwt>
</event>
<event>
 4      1 +1.5204000e-02 9.88346700e+02 7.81860800e-03 9.32141900e-02
        2 -1    0    0  501    0 +0.0000000000e+00 +0.0000000000e+00 +1.1969903894e+03 1.1969903894e+03 0.0000000000e+00 0.0000e+00 -1.0000e+00
       -2 -1    0    0    0  501 -0.0000000000e+00 -0.0000000000e+00 -2.0401774432e+02 2.0401774432e+02 0.0000000000e+00 0.0000e+00 1.0000e+00
     -556  1    1    2    0    0 +2.1528533286e+02 -3.9716512141e+02 +5.1197380291e+02 7.1148090844e+02 2.0000000000e+02 0.0000e+00 -1.0000e+00
      556  1    1    2    0    0 -2.1528533286e+02 +3.9716512141e+02 +4.8099884214e+02 6.8952722524e+02 2.0000000000e+02 0.0000e+00 1.0000e+00
<mgrwt>
<rscale>  0 0.98834666E+03</rscale>
<asrwt>0</asrwt>
<pdfrwt beam="1">  1        2 0.18415236E+00 0.98834666E+03</pdfrwt>
<pdfrwt beam="2">  1       -2 0.31387346E-01 0.98834666E+03</pdfrwt>
<totfact> 0.17873757E+02</totfact>
</mgrwt>
</event>
<event>
 4      1 +1.5204000e-02 1.26592900e+03 7.81860800e-03 9.05702900e-02
        2 -1    0    0  501    0 +0.0000000000e+00 +0.0000000000e+00 +1.0019248934e+03 1.0019248934e+03 0.0000000000e+00 0.0000e+00 -1.0000e+00
       -2 -1    0    0    0  501 -0.0000000000e+00 -0.0000000000e+00 -3.9987451386e+02 3.9987451386e+02 0.0000000000e+00 0.0000e+00 1.0000e+00
     -556  1    1    2    0    0 +1.2132156430e+02 -3.8137871252e+02 -1.9477555564e+02 4.8796122941e+02 2.0000000000e+02 0.0000e+00 1.0000e+00
      556  1    1    2    0    0 -1.2132156430e+02 +3.8137871252e+02 +7.9682593516e+02 9.1383817783e+02 2.0000000000e+02 0.0000e+00 -1.0000e+00
<mgrwt>
<rscale>  0 0.12659293E+04</rscale>
<asrwt>0</asrwt>
<pdfrwt beam="1">  1        2 0.15414229E+00 0.12659293E+04</pdfrwt>
<pdfrwt beam="2">  1       -2 0.61519156E-01 0.12659293E+04</pdfrwt>
<totfact> 0.60614497E+01</totfact>
</mgrwt>
</event>
<event>
 4      1 +1.5204000e-02 9.58902900e+02 7.81860800e-03 9.35480500e-02
        1 -1    0    0  501    0 +0.0000000000e+00 +0.0000000000e+00 +1.4027453770e+03 1.4027453770e+03 0.0000000000e+00 0.0000e+00 -1.0000e+00
       -1 -1    0    0    0  501 -0.0000000000e+00 -0.0000000000e+00 -1.6387414271e+02 1.6387414271e+02 0.0000000000e+00 0.0000e+00 1.0000e+00
     -556  1    1    2    0    0 +1.6790800934e+02 -2.8435793191e+01 -3.5847730845e+01 2.6511649089e+02 2.0000000000e+02 0.0000e+00 1.0000e+00
      556  1    1    2    0    0 -1.6790800934e+02 +2.8435793191e+01 +1.2747189652e+03 1.3015030288e+03 2.0000000000e+02 0.0000e+00 -1.0000e+00
<mgrwt>
<rscale>  0 0.95890291E+03</rscale>
<asrwt>0</asrwt>
<pdfrwt beam="1">  1        1 0.21580697E+00 0.95890291E+03</pdfrwt>
<pdfrwt beam="2">  1       -1 0.25211408E-01 0.95890291E+03</pdfrwt>
<totfact> 0.10607507E+02</totfact>
</mgrwt>
</event>
<event>
 4      1 +1.5204000e-02 7.51625200e+02 7.81860800e-03 9.63280400e-02
       -2 -1    0    0    0  501 -0.0000000000e+00 +0.0000000000e+00 +3.2971272501e+02 3.2971272501e+02 0.0000000000e+00 0.0000e+00 1.0000e+00
        2 -1    0    0  501    0 +0.0000000000e+00 -0.0000000000e+00 -4.2835807304e+02 4.2835807304e+02 0.0000000000e+00 0.0000e+00 -1.0000e+00
     -556  1    1    2    0    0 -1.7160501766e+02 -2.1630986737e+02 -2.0878247827e+02 3.9978539748e+02 2.0000000000e+02 0.0000e+00 -1.0000e+00
      556  1    1    2    0    0 +1.7160501766e+02 +2.1630986737e+02 +1.1013713024e+02 3.5828540058e+02 2.0000000000e+02 0.0000e+00 1.0000e+00
<mgrwt>
<rscale>  0 0.75162519E+03</rscale>
<asrwt>0</asrwt>
<pdfrwt beam="2">  1        2 0.65901242E-01 0.75162519E+03</pdfrwt>
<pdfrwt beam="1">  1       -2 0.50725035E-01 0.75162519E+03</pdfrwt>
<totfact> 0.27262003E+02</totfact>
</mgrwt>
</event>
<event>
 4      1 +1.5204000e-02 8.86695700e+02 7.81860800e-03 9.44236700e-02
        2 -1    0    0  501    0 +0.0000000000e+00 +0.0000000000e+00 +2.3803128025e+03 2.3803128025e+03 0.0000000000e+00 0.0000e+00 -1.0000e+00
       -2 -1    0    0    0  501 -0.0000000000e+00 -0.0000000000e+00 -8.2576249184e+01 8.2576249184e+01 0.0000000000e+00 0.0000e+00 1.0000e+00
     -556  1    1    2    0    0 -1.0442262643e+02 +9.0720591587e+01 +1.1919376889e+02 2.7081629418e+02 2.0000000000e+02 0.0000e+00 1.0000e+00
      556  1    1    2    0    0 +1.0442262643e+02 -9.0720591587e+01 +2.1785427844e+03 2.1920727575e+03 2.0000000000e+02 0.0000e+00 -1.0000e+00
<mgrwt>
<rscale>  0 0.88669567E+03</rscale>
<asrwt>0</asrwt>
<pdfrwt beam="1">  1        2 0.36620192E+00 0.88669567E+03</pdfrwt>
<pdfrwt beam="2">  1       -2 0.12704040E-01 0.88669567E+03</pdfrwt>
<totfact> 0.19293909E+02</totfact>
</mgrwt>
</event>
<event>
 4      1 +1.5204000e-02 6.92576400e+02 7.81860800e-03 9.73001200e-02
       -2 -1    0    0    0  501 -0.0000000000e+00 +0.0000000000e+00 +6.7912821551e+01 6.7912821551e+01 0.0000000000e+00 0.0000e+00 1.0000e+00
        2 -1    0    0  501    0 +0.0000000000e+00 -0.0000000000e+00 -1.7657274369e+03 1.7657274369e+03 0.0000000000e+00 0.0000e+00 -1.0000e+00
     -556  1    1    2    0    0 -2.2607338908e+02 +1.1484562865e+02 -1.1797663086e+03 1.2231709768e+03 2.0000000000e+02 0.0000e+00 -1.0000e+00
      556  1    1    2    0    0 +2.2607338908e+02 -1.1484562865e+02 -5.1804830674e+02 6.1046928161e+02 2.0000000000e+02 0.0000e+00 1.0000e+00
<mgrwt>
<rscale>  0 0.69257644E+03</rscale>
<asrwt>0</asrwt>
<pdfrwt beam="2">  1        2 0.27165038E+00 0.69257644E+03</pdfrwt>
<pdfrwt beam="1">  1       -2 0.10448126E-01 0.69257644E+03</pdfrwt>
<totfact> 0.58847633E+02</totfact>
</mgrwt>
</event>
<event>
 4      1 +1.5204000e-02 7.22689000e+02 7.81860800e-03 9.67919900e-02
        2 -1    0    0  501    0 +0.0000000000e+00 +0.0000000000e+00 +5.0762969342e+02 5.0762969342e+02 0.0000000000e+00 0.0000e+00 -1.0000e+00
       -2 -1    0    0    0  501 -0.0000000000e+00 -0.0000000000e+00 -2.5721475533e+02 2.5721475533e+02 0.0000000000e+00 0.0000e+00 1.0000e+00
     -556  1    1    2    0    0 -1.1978098228e+02 +2.3420539671e+02 -2.9505216899e+01 3.3176830679e+02 2.0000000000e+02 0.0000e+00 1.0000e+00
      556  1    1    2    0    0 +1.1978098228e+02 -2.3420539671e+02 +2.7992015499e+02 4.3307614196e+02 2.0000000000e+02 0.0000e+00 -1.0000e+00
<mgrwt>
<rscale>  0 0.72268900E+03</rscale>
<asrwt>0</asrwt>
<pdfrwt beam="1">  1        2 0.78096876E-01 0.72268900E+03</pdfrwt>
<pdfrwt beam="2">  1       -2 0.39571501E-01 0.72268900E+03</pdfrwt>
<totfact> 0.36823507E+02</totfact>
</mgrwt>
</event>
<event>
 4      1 +1.5204000e-02 5.38004000e+02 7.81860800e-03 1.00430900e-01
        1 -1    0    0  501    0 +0.0000000000e+00 +0.0000000000e+00 +1.5392007988e+02 1.5392007988e+02 0.0000000000e+00 0.0000e+00 -1.0000e+00
       -1 -1    0    0    0  501 -0.0000000000e+00 -0.0000000000e+00 -4.7012762460e+02 4.7012762460e+02 0.0000000000e+00 0.0000e+00 1.0000e+00
     -556  1    1    2    0    0 +1.3902971742e+01 -1.4368376946e+01 -3.6547645370e+02 4.1710044484e+02 2.0000000000e+02 0.0000e+00 1.0000e+00
      556  1    1    2    0    0 -1.3902971742e+01 +1.4368376946e+01 +4.9268908973e+01 2.0694725964e+02 2.0000000000e+02 0.0000e+00 -1.0000e+00
<mgrwt>
<rscale>  0 0.53800402E+03</rscale>
<asrwt>0</asrwt>
<pdfrwt beam="1">  1        1 0.23680013E-01 0.53800402E+03</pdfrwt>
<pdfrwt beam="2">  1       -1 0.72327325E-01 0.53800402E+03</pdfrwt>
<totfact> 0.41006004E+02</totfact>
</mgrwt>
</event>
<event>
 4      1 +1.5204000e-02 4.53748100e+02 7.81860800e-03 1.02661000e-01
       -2 -1    0    0    0  501 -0.0000000000e+00 +0.0000000000e+00 +1.0953468614e+02 1.0953468614e+02 0.0000000000e+00 0.0000e+00 1.0000e+00
        2 -1    0    0  501    0 +0.0000000000e+00 -0.0000000000e+00 -4.6991359077e+02 4.6991359077e+02 0.0000000000e+00 0.0000e+00 -1.0000e+00
     -556  1    1    2    0    0 -2.0957103817e+01 +7.1185418206e+01 -8.1558090154e+01 2.2838188640e+02 2.0000000000e+02 0.0000e+00 1.0000e+00
      556  1    1    2    0    0 +2.0957103817e+01 -7.1185418206e+01 -2.7882081447e+02 3.5106639051e+02 2.0000000000e+02 0.0000e+00 -1.0000e+00
<mgrwt>
<rscale>  0 0.45374811E+03</rscale>
<asrwt>0</asrwt>
<pdfrwt beam="2">  1        2 0.72294399E-01 0.45374811E+03</pdfrwt>
<pdfrwt beam="1">  1       -2 0.16851490E-01 0.45374811E+03</pdfrwt>
<totfact> 0.18915721E+03</totfact>
</mgrwt>
</event>
<event>
 4      1 +1.5204000e-02 4.76972300e+02 7.81860800e-03 1.01997100e-01
       -1 -1    0    0    0  501 -0.0000000000e+00 +0.0000000000e+00 +4.7018064406e+01 4.7018064406e+01 0.0000000000e+00 0.0000e+00 1.0000e+00
        1 -1    0    0  501    0 +0.0000000000e+00 -0.0000000000e+00 -1.2096550451e+03 1.2096550451e+03 0.0000000000e+00 0.0000e+00 -1.0000e+00
     -556  1    1    2    0    0 +8.3275705500e+01 +2.6230279645e+01 -8.3475257428e+02 8.6280631138e+02 2.0000000000e+02 0.0000e+00 -1.0000e+00
      556  1    1    2    0    0 -8.3275705500e+01 -2.6230279645e+01 -3.2788440644e+02 3.9386679815e+02 2.0000000000e+02 0.0000e+00 1.0000e+00
<mgrwt>
<rscale>  0 0.47697228E+03</rscale>
<asrwt>0</asrwt>
<pdfrwt beam="2">  1        1 0.18610077E+00 0.47697228E+03</pdfrwt>
<pdfrwt beam="1">  1       -1 0.72335486E-02 0.47697228E+03</pdfrwt>
<totfact> 0.11252098E+03</totfact>
</mgrwt>
</event>
<event>
 4      1 +1.5204000e-02 9.15774900e+02 7.81860800e-03 9.40607400e-02
       -1 -1    0    0    0  501 -0.0000000000e+00 +0.0000000000e+00 +3.6291052332e+02 3.6291052332e+02 0.0000000000e+00 0.0000e+00 1.0000e+00
        1 -1    0    0  501    0 +0.0000000000e+00 -0.0000000000e+00 -5.7772070602e+02 5.7772070602e+02 0.0000000000e+00 0.0000e+00 -1.0000e+00
     -556  1    1    2    0    0 +2.0370374581e+02 -1.1874387457e+02 +2.3949786008e+02 3.9109404085e+02 2.0000000000e+02 0.0000e+00 1.0000e+00
      556  1    1    2    0    0 -2.0370374581e+02 +1.1874387457e+02 -4.5430804278e+02 5.4953718850e+02 2.0000000000e+02 0.0000e+00 -1.0000e+00
<mgrwt>
<rscale>  0 0.91577492E+03</rscale>
<asrwt>0</asrwt>
<pdfrwt beam="2">  1        1 0.88880108E-01 0.91577492E+03</pdfrwt>
<pdfrwt beam="1">  1       -1 0.55832389E-01 0.91577492E+03</pdfrwt>
<totfact> 0.11819124E+02</totfact>
</mgrwt>
</event>
<event>
 4      1 +1.5204000e-02 8.71150200e+02 7.81860800e-03 9.46238100e-02
       -2 -1    0    0    0  501 -0.0000000000e+00 +0.0000000000e+00 +2.0848578075e+02 2.0848578075e+02 0.0000000000e+00 0.0000e+00 1.0000e+00
        2 -1    0    0  501    0 +0.0000000000e+00 -0.0000000000e+00 -9.1001735369e+02 9.1001735369e+02 0.0000000000e+00 0.0000e+00 -1.0000e+00
     -556  1    1    2    0    0 -3.4478111946e+00 +2.4415331902e+02 +3.4635937059e+01 3.1752539856e+02 2.0000000000e+02 0.0000e+00 1.0000e+00
      556  1    1    2    0    0 +3.4478111946e+00 -2.4415331902e+02 -7.3616751000e+02 8.0097773588e+02 2.0000000000e+02 0.0000e+00 -1.0000e+00
<mgrwt>
<rscale>  0 0.87115022E+03</rscale>
<asrwt>0</asrwt>
<pdfrwt beam="2">  1        2 0.14000267E+00 0.87115022E+03</pdfrwt>
<pdfrwt beam="1">  1       -2 0.32074735E-01 0.87115022E+03</pdfrwt>
<totfact> 0.26170756E+02</totfact>
</mgrwt>
</event>
<event>
 4      1 +1.5204000e-02 5.92478200e+02 7.81860800e-03 9.92113500e-02
        2 -1    0    0  501    0 +0.0000000000e+00 +0.0000000000e+00 +3.5313724992e+02 3.5313724992e+02 0.0000000000e+00 0.0000e+00 -1.0000e+00
       -2 -1    0    0    0  501 -0.0000000000e+00 -0.0000000000e+00 -2.4850846970e+02 2.4850846970e+02 0.0000000000e+00 0.0000e+00 1.0000e+00
     -556  1    1    2    0    0 +8.0036084154e+01 -1.2228266431e+02 +2.1730542327e+02 3.2951551062e+02 2.0000000000e+02 0.0000e+00 -1.0000e+00
      556  1    1    2    0    0 -8.0036084154e+01 +1.2228266431e+02 -1.1267664305e+02 2.7213020899e+02 2.0000000000e+02 0.0000e+00 1.0000e+00
<mgrwt>
<rscale>  0 0.59247818E+03</rscale>
<asrwt>0</asrwt>
<pdfrwt beam="1">  1        2 0.54328808E-01 0.59247818E+03</pdfrwt>
<pdfrwt beam="2">  1       -2 0.38232072E-01 0.59247818E+03</pdfrwt>
<totfact> 0.59519595E+02</totfact>
</mgrwt>
</event>
<event>
 4      1 +1.5204000e-02 8.10629800e+02 7.81860800e-03 9.54475700e-02
        2 -1    0    0  501    0 +0.0000000000e+00 +0.0000000000e+00 +1.1990983299e+03 1.1990983299e+03 0.0000000000e+00 0.0000e+00 1.0000e+00
       -2 -1    0    0    0  501 -0.0000000000e+00 -0.0000000000e+00 -1.3700307292e+02 1.3700307292e+02 0.0000000000e+00 0.0000e+00 -1.0000e+00
     -556  1    1    2    0    0 +7.5950235472e+00 +4.3940364982e+01 +1.1074362389e+03 1.1262341956e+03 2.0000000000e+02 0.0000e+00 1.0000e+00
      556  1    1    2    0    0 -7.5950235472e+00 -4.3940364982e+01 -4.5340981880e+01 2.0986720729e+02 2.0000000000e+02 0.0000e+00 -1.0000e+00
<mgrwt>
<rscale>  0 0.81062977E+03</rscale>
<asrwt>0</asrwt>
<pdfrwt beam="1">  1        2 0.18447666E+00 0.81062977E+03</pdfrwt>
<pdfrwt beam="2">  1       -2 0.21077397E-01 0.81062977E+03</pdfrwt>
<totfact> 0.37100801E+02</totfact>
</mgrwt>
</event>
<event>
 4      1 +1.5204000e-02 5.67435900e+02 7.81860800e-03 9.97536900e-02
       -1 -1    0    0    0  501 -0.0000000000e+00 +0.0000000000e+00 +1.3869438433e+03 1.3869438433e+03 0.0000000000e+00 0.0000e+00 1.0000e+00
        1 -1    0    0  501    0 +0.0000000000e+00 -0.0000000000e+00 -5.8038316088e+01 5.8038316088e+01 0.0000000000e+00 0.0000e+00 -1.0000e+00
     -556  1    1    2    0    0 +1.8851128466e+02 -2.6039910258e+00 +4.8524274947e+02 5.5767715672e+02 2.0000000000e+02 0.0000e+00 -1.0000e+00
      556  1    1    2    0    0 -1.8851128466e+02 +2.6039910258e+00 +8.4366277777e+02 8.8730500270e+02 2.0000000000e+02 0.0000e+00 1.0000e+00
<mgrwt>
<rscale>  0 0.56743594E+03</rscale>
<asrwt>0</asrwt>
<pdfrwt beam="2">  1        1 0.89289727E-02 0.56743594E+03</pdfrwt>
<pdfrwt beam="1">  1       -1 0.21337595E+00 0.56743594E+03</pdfrwt>
<totfact> 0.99260500E+01</totfact>
</mgrwt>
</event>
<event>
 4      1 +1.5204000e-02 5.68232100e+02 7.81860800e-03 9.97359800e-02
        2 -1    0    0  501    0 +0.0000000000e+00 +0.0000000000e+00 +6.9181678557e+02 6.9181678557e+02 0.0000000000e+00 0.0000e+00 -1.0000e+00
       -2 -1    0    0    0  501 -0.0000000000e+00 -0.0000000000e+00 -1.1668109947e+02 1.1668109947e+02 0.0000000000e+00 0.0000e+00 1.0000e+00
     -556  1    1    2    0    0 +6.5845948777e+00 +2.0151686018e+02 +2.7570265498e+02 3.9580848373e+02 2.0000000000e+02 0.0000e+00 1.0000e+00
      556  1    1    2    0    0 -6.5845948777e+00 -2.0151686018e+02 +2.9943303112e+02 4.1268940131e+02 2.0000000000e+02 0.0000e+00 -1.0000e+00
<mgrwt>
<rscale>  0 0.56823215E+03</rscale>
<asrwt>0</asrwt>
<pdfrwt beam="1">  1        2 0.10643335E+00 0.56823215E+03</pdfrwt>
<pdfrwt beam="2">  1       -2 0.17950939E-01 0.56823215E+03</pdfrwt>
<totfact> 0.10755790E+03</totfact>
</mgrwt>
</event>
<event>
 4      1 +1.5204000e-02 4.21997800e+02 7.81860800e-03 1.03641800e-01
        2 -1    0    0  501    0 +0.0000000000e+00 +0.0000000000e+00 +5.3828739385e+01 5.3828739385e+01 0.0000000000e+00 0.0000e+00 -1.0000e+00
       -2 -1    0    0    0  501 -0.0000000000e+00 -0.0000000000e+00 -8.2707753289e+02 8.2707753289e+02 0.0000000000e+00 0.0000e+00 1.0000e+00
     -556  1    1    2    0    0 -4.9384260648e+01 -3.9182665123e+01 -3.3782701699e+02 3.9761939069e+02 2.0000000000e+02 0.0000e+00 1.0000e+00
      556  1    1    2    0    0 +4.9384260648e+01 +3.9182665123e+01 -4.3542177652e+02 4.8328688158e+02 2.0000000000e+02 0.0000e+00 -1.0000e+00
<mgrwt>
<rscale>  0 0.42199782E+03</rscale>
<asrwt>0</asrwt>
<pdfrwt beam="1">  1        2 0.82813447E-02 0.42199782E+03</pdfrwt>
<pdfrwt beam="2">  1       -2 0.12724269E+00 0.42199782E+03</pdfrwt>
<totfact> 0.39282787E+02</totfact>
</mgrwt>
</event>
<event>
 4      1 +1.5204000e-02 5.35640100e+02 7.81860800e-03 1.00487300e-01
       -1 -1    0    0    0  501 -0.0000000000e+00 +0.0000000000e+00 +1.8770554817e+01 1.8770554817e+01 0.0000000000e+00 0.0000e+00 1.0000e+00
        1 -1    0    0  501    0 +0.0000000000e+00 -0.0000000000e+00 -3.8212822149e+03 3.8212822149e+03 0.0000000000e+00 0.0000e+00 -1.0000e+00
     -556  1    1    2    0    0 -3.4418660455e+01 +1.1114780746e+02 -2.8681296171e+03 2.8774478240e+03 2.0000000000e+02 0.0000e+00 -1.0000e+00
      556  1    1    2    0    0 +3.4418660455e+01 -1.1114780746e+02 -9.3438204293e+02 9.6260494568e+02 2.0000000000e+02 0.0000e+00 1.0000e+00
<mgrwt>
<rscale>  0 0.53564013E+03</rscale>
<asrwt>0</asrwt>
<pdfrwt beam="2">  1        1 0.58788999E+00 0.53564013E+03</pdfrwt>
<pdfrwt beam="1">  1       -1 0.28877756E-02 0.53564013E+03</pdfrwt>
<totfact> 0.65860120E+01</totfact>
</mgrwt>
</event>
<event>
 4      1 +1.5204000e-02 4.72792100e+02 7.81860800e-03 1.02113500e-01
       -2 -1    0    0    0  501 -0.0000000000e+00 +0.0000000000e+00 +4.8702968874e+01 4.8702968874e+01 0.0000000000e+00 0.0000e+00 -1.0000e+00
        2 -1    0    0  501    0 +0.0000000000e+00 -0.0000000000e+00 -1.1474270019e+03 1.1474270019e+03 0.0000000000e+00 0.0000e+00 1.0000e+00
     -556  1    1    2    0    0 -3.2193897319e+01 +5.6807726781e+01 -8.2207293874e+02 8.4856790032e+02 2.0000000000e+02 0.0000e+00 1.0000e+00
      556  1    1    2    0    0 +3.2193897319e+01 -5.6807726781e+01 -2.7665109428e+02 3.4756207045e+02 2.0000000000e+02 0.0000e+00 -1.0000e+00
<mgrwt>
<rscale>  0 0.47279214E+03</rscale>
<asrwt>0</asrwt>
<pdfrwt beam="2">  1        2 0.17652721E+00 0.47279214E+03</pdfrwt>
<pdfrwt beam="1">  1       -2 0.74927655E-02 0.47279214E+03</pdfrwt>
<totfact> 0.22449365E+03</totfact>
</mgrwt>
</event>
<event>
 4      1 +1.5204000e-02 4.72483800e+02 7.81860800e-03 1.02122200e-01
        1 -1    0    0  501    0 +0.0000000000e+00 +0.0000000000e+00 +2.3513690788e+03 2.3513690788e+03 0.0000000000e+00 0.0000e+00 -1.0000e+00
       -1 -1    0    0    0  501 -0.0000000000e+00 -0.0000000000e+00 -2.3735212886e+01 2.3735212886e+01 0.0000000000e+00 0.0000e+00 1.0000e+00
     -556  1    1    2    0    0 -3.5013173523e+01 -2.2893336477e+01 +5.6775449289e+02 6.0340300908e+02 2.0000000000e+02 0.0000e+00 1.0000e+00
      556  1    1    2    0    0 +3.5013173523e+01 +2.2893336477e+01 +1.7598793730e+03 1.7717012826e+03 2.0000000000e+02 0.0000e+00 -1.0000e+00
<mgrwt>
<rscale>  0 0.47248384E+03</rscale>
<asrwt>0</asrwt>
<pdfrwt beam="1">  1        1 0.36174890E+00 0.47248384E+03</pdfrwt>
<pdfrwt beam="2">  1       -1 0.36515731E-02 0.47248384E+03</pdfrwt>
<totfact> 0.54670038E+02</totfact>
</mgrwt>
</event>
<event>
 4      1 +1.5204000e-02 5.28885300e+02 7.81860800e-03 1.00650300e-01
        2 -1    0    0  501    0 +0.0000000000e+00 +0.0000000000e+00 +2.1277329652e+03 2.1277329652e+03 0.0000000000e+00 0.0000e+00 -1.0000e+00
       -2 -1    0    0    0  501 -0.0000000000e+00 -0.0000000000e+00 -3.2865927136e+01 3.2865927136e+01 0.0000000000e+00 0.0000e+00 1.0000e+00
     -556  1    1    2    0    0 -4.8181940975e+01 -1.0551622869e+02 +5.2308267930e+02 5.7190092091e+02 2.0000000000e+02 0.0000e+00 1.0000e+00
      556  1    1    2    0    0 +4.8181940975e+01 +1.0551622869e+02 +1.5717843587e+03 1.5886979714e+03 2.0000000000e+02 0.0000e+00 -1.0000e+00
<mgrwt>
<rscale>  0 0.52888531E+03</rscale>
<asrwt>0</asrwt>
<pdfrwt beam="1">  1        2 0.32734343E+00 0.52888531E+03</pdfrwt>
<pdfrwt beam="2">  1       -2 0.50562981E-02 0.52888531E+03</pdfrwt>
<totfact> 0.11973672E+03</totfact>
</mgrwt>
</event>
<event>
 4      1 +1.5204000e-02 4.86623400e+02 7.81860800e-03 1.01733100e-01
        1 -1    0    0  501    0 +0.0000000000e+00 +0.0000000000e+00 +9.1376081090e+02 9.1376081090e+02 0.0000000000e+00 0.0000e+00 -1.0000e+00
       -1 -1    0    0    0  501 -0.0000000000e+00 -0.0000000000e+00 -6.4787821647e+01 6.4787821647e+01 0.0000000000e+00 0.0000e+00 1.0000e+00
     -556  1    1    2    0    0 +9.6322050047e+00 +1.8820972337e+01 +6.9986584679e+02 7.2818899461e+02 2.0000000000e+02 0.0000e+00 -1.0000e+00
      556  1    1    2    0    0 -9.6322050047e+00 -1.8820972337e+01 +1.4910714246e+02 2.5035963793e+02 2.0000000000e+02 0.0000e+00 1.0000e+00
<mgrwt>
<rscale>  0 0.48662336E+03</rscale>
<asrwt>0</asrwt>
<pdfrwt beam="1">  1        1 0.14057858E+00 0.48662336E+03</pdfrwt>
<pdfrwt beam="2">  1       -1 0.99673578E-02 0.48662336E+03</pdfrwt>
<totfact> 0.11375157E+03</totfact>
</mgrwt>
</event>
<event>
 4      1 +1.5204000e-02 4.70884000e+02 7.81860800e-03 1.02167100e-01
       -1 -1    0    0    0  501 -0.0000000000e+00 +0.0000000000e+00 +1.9618222421e+01 1.9618222421e+01 0.0000000000e+00 0.0000e+00 1.0000e+00
        1 -1    0    0  501    0 +0.0000000000e+00 -0.0000000000e+00 -2.8255843177e+03 2.8255843177e+03 0.0000000000e+00 0.0000e+00 -1.0000e+00
     -556  1    1    2    0    0 +1.1826049815e+02 -3.6590028380e+01 -1.4659403595e+03 1.4846903762e+03 2.0000000000e+02 0.0000e+00 -1.0000e+00
      556  1    1    2    0    0 -1.1826049815e+02 +3.6590028380e+01 -1.3400257358e+03 1.3605121639e+03 2.0000000000e+02 0.0000e+00 1.0000e+00
<mgrwt>
<rscale>  0 0.47088403E+03</rscale>
<asrwt>0</asrwt>
<pdfrwt beam="2">  1        1 0.43470488E+00 0.47088403E+03</pdfrwt>
<pdfrwt beam="1">  1       -1 0.30181908E-02 0.47088403E+03</pdfrwt>
<totfact> 0.34628644E+02</totfact>
</mgrwt>
</event>
<event>
 4      1 +1.5204000e-02 6.64749500e+02 7.81860800e-03 9.77949000e-02
        1 -1    0    0  501    0 +0.0000000000e+00 +0.0000000000e+00 +4.1755028289e+02 4.1755028289e+02 0.0000000000e+00 0.0000e+00 -1.0000e+00
       -1 -1    0    0    0  501 -0.0000000000e+00 -0.0000000000e+00 -2.6457402507e+02 2.6457402507e+02 0.0000000000e+00 0.0000e+00 1.0000e+00
     -556  1    1    2    0    0 +1.5876638703e+02 -1.7742912193e+02 +1.9696689154e+02 3.6808126184e+02 2.0000000000e+02 0.0000e+00 -1.0000e+00
      556  1    1    2    0    0 -1.5876638703e+02 +1.7742912193e+02 -4.3990633721e+01 3.1404304611e+02 2.0000000000e+02 0.0000e+00 1.0000e+00
<mgrwt>
<rscale>  0 0.66474945E+03</rscale>
<asrwt>0</asrwt>
<pdfrwt beam="1">  1        1 0.64238504E-01 0.66474945E+03</pdfrwt>
<pdfrwt beam="2">  1       -1 0.40703697E-01 0.66474945E+03</pdfrwt>
<totfact> 0.33844555E+02</totfact>
</mgrwt>
</event>
<event>
 4      1 +1.5204000e-02 5.63357200e+02 7.81860800e-03 9.98448700e-02
       -2 -1    0    0    0  501 -0.0000000000e+00 +0.0000000000e+00 +4.6725463908e+01 4.6725463908e+01 0.0000000000e+00 0.0000e+00 1.0000e+00
        2 -1    0    0  501    0 +0.0000000000e+00 -0.0000000000e+00 -1.6980642825e+03 1.6980642825e+03 0.0000000000e+00 0.0000e+00 -1.0000e+00
     -556  1    1    2    0    0 -4.2187847290e+01 -1.0763468745e+02 -3.2648567847e+02 3.9994741985e+02 2.0000000000e+02 0.0000e+00 1.0000e+00
      556  1    1    2    0    0 +4.2187847290e+01 +1.0763468745e+02 -1.3248531401e+03 1.3448423266e+03 2.0000000000e+02 0.0000e+00 -1.0000e+00
<mgrwt>
<rscale>  0 0.56335723E+03</rscale>
<asrwt>0</asrwt>
<pdfrwt beam="2">  1        2 0.26124064E+00 0.56335723E+03</pdfrwt>
<pdfrwt beam="1">  1       -2 0.71885334E-02 0.56335723E+03</pdfrwt>
<totfact> 0.11760586E+03</totfact>
</mgrwt>
</event>
<event>
 4      1 +1.5204000e-02 4.98968100e+02 7.81860800e-03 1.01404900e-01
        2 -1    0    0  501    0 +0.0000000000e+00 +0.0000000000e+00 +2.5013125367e+02 2.5013125367e+02 0.0000000000e+00 0.0000e+00 -1.0000e+00
       -2 -1    0    0    0  501 -0.0000000000e+00 -0.0000000000e+00 -2.4883851990e+02 2.4883851990e+02 0.0000000000e+00 0.0000e+00 1.0000e+00
     -556  1    1    2    0    0 -7.4932852475e+01 -7.6057341903e+01 -1.0348197740e+02 2.4921511047e+02 2.0000000000e+02 0.0000e+00 1.0000e+00
      556  1    1    2    0    0 +7.4932852475e+01 +7.6057341903e+01 +1.0477471117e+02 2.4975466310e+02 2.0000000000e+02 0.0000e+00 -1.0000e+00
<mgrwt>
<rscale>  0 0.49896810E+03</rscale>
<asrwt>0</asrwt>
<pdfrwt beam="1">  1        2 0.38481731E-01 0.49896810E+03</pdfrwt>
<pdfrwt beam="2">  1       -2 0.38282849E-01 0.49896810E+03</pdfrwt>
<totfact> 0.86920854E+02</totfact>
</mgrwt>
</event>
<event>
 4      1 +1.5204000e-02 4.67458800e+02 7.81860800e-03 1.02264000e-01
       -1 -1    0    0    0  501 -0.0000000000e+00 +0.0000000000e+00 +1.6274097703e+02 1.6274097703e+02 0.0000000000e+00 0.0000e+00 1.0000e+00
        1 -1    0    0  501    0 +0.0000000000e+00 -0.0000000000e+00 -3.3568337143e+02 3.3568337143e+02 0.0000000000e+00 0.0000e+00 -1.0000e+00
     -556  1    1    2    0    0 +7.0720234189e+01 +9.5793608522e+01 -6.3810780608e+01 2.4134950317e+02 2.0000000000e+02 0.0000e+00 1.0000e+00
      556  1    1    2    0    0 -7.0720234189e+01 -9.5793608522e+01 -1.0913161379e+02 2.5707484530e+02 2.0000000000e+02 0.0000e+00 -1.0000e+00
<mgrwt>
<rscale>  0 0.46745883E+03</rscale>
<asrwt>0</asrwt>
<pdfrwt beam="2">  1        1 0.51643595E-01 0.46745883E+03</pdfrwt>
<pdfrwt beam="1">  1       -1 0.25037074E-01 0.46745883E+03</pdfrwt>
<totfact> 0.10583253E+03</totfact>
</mgrwt>
</event>
<event>
 4      1 +1.5204000e-02 7.16692700e+02 7.81860800e-03 9.68910400e-02
        1 -1    0    0  501    0 +0.0000000000e+00 +0.0000000000e+00 +1.2694960460e+03 1.2694960460e+03 0.0000000000e+00 0.0000e+00 -1.0000e+00
       -1 -1    0    0    0  501 -0.0000000000e+00 -0.0000000000e+00 -1.0115203166e+02 1.0115203166e+02 0.0000000000e+00 0.0000e+00 1.0000e+00
     -556  1    1    2    0    0 -2.3365323674e+00 +2.4619808691e+02 +2.6534004974e+02 4.1355084255e+02 2.0000000000e+02 0.0000e+00 1.0000e+00
      556  1    1    2    0    0 +2.3365323674e+00 -2.4619808691e+02 +9.0300396460e+02 9.5709723511e+02 2.0000000000e+02 0.0000e+00 -1.0000e+00
<mgrwt>
<rscale>  0 0.71669269E+03</rscale>
<asrwt>0</asrwt>
<pdfrwt beam="1">  1        1 0.19530707E+00 0.71669269E+03</pdfrwt>
<pdfrwt beam="2">  1       -1 0.15561852E-01 0.71669269E+03</pdfrwt>
<totfact> 0.29941460E+02</totfact>
</mgrwt>
</event>
<event>
 4      1 +1.5204000e-02 6.54688400e+02 7.81860800e-03 9.79802100e-02
        1 -1    0    0  501    0 +0.0000000000e+00 +0.0000000000e+00 +2.8051279292e+02 2.8051279292e+02 0.0000000000e+00 0.0000e+00 -1.0000e+00
       -1 -1    0    0    0  501 -0.0000000000e+00 -0.0000000000e+00 -3.8199410080e+02 3.8199410080e+02 0.0000000000e+00 0.0000e+00 1.0000e+00
     -556  1    1    2    0    0 +1.1288049668e+02 -1.5482449310e+01 -2.8627012592e+02 3.6733131878e+02 2.0000000000e+02 0.0000e+00 1.0000e+00
      556  1    1    2    0    0 -1.1288049668e+02 +1.5482449310e+01 +1.8478881804e+02 2.9517557494e+02 2.0000000000e+02 0.0000e+00 -1.0000e+00
<mgrwt>
<rscale>  0 0.65468842E+03</rscale>
<asrwt>0</asrwt>
<pdfrwt beam="1">  1        1 0.43155814E-01 0.65468842E+03</pdfrwt>
<pdfrwt beam="2">  1       -1 0.58768323E-01 0.65468842E+03</pdfrwt>
<totfact> 0.28488823E+02</totfact>
</mgrwt>
</event>
<event>
 4      1 +1.5204000e-02 4.58782900e+02 7.81860800e-03 1.02513500e-01
        4 -1    0    0  501    0 +0.0000000000e+00 +0.0000000000e+00 +4.3487877758e+01 4.3487877758e+01 0.0000000000e+00 0.0000e+00 -1.0000e+00
       -4 -1    0    0    0  501 -0.0000000000e+00 -0.0000000000e+00 -1.2100026232e+03 1.2100026232e+03 0.0000000000e+00 0.0000e+00 1.0000e+00
     -556  1    1    2    0    0 +2.3304552301e+01 -4.8717450596e+01 -3.1411123417e+02 3.7627431427e+02 2.0000000000e+02 0.0000e+00 -1.0000e+00
      556  1    1    2    0    0 -2.3304552301e+01 +4.8717450596e+01 -8.5240351128e+02 8.7721618670e+02 2.0000000000e+02 0.0000e+00 1.0000e+00
<mgrwt>
<rscale>  0 0.45878294E+03</rscale>
<asrwt>0</asrwt>
<pdfrwt beam="1">  1        4 0.66904437E-02 0.45878294E+03</pdfrwt>
<pdfrwt beam="2">  1       -4 0.18615422E+00 0.45878294E+03</pdfrwt>
<totfact> 0.50446836E+01</totfact>
</mgrwt>
</event>
<event>
 4      1 +1.5204000e-02 4.94154700e+02 7.81860800e-03 1.01531600e-01
       -2 -1    0    0    0  501 -0.0000000000e+00 +0.0000000000e+00 +9.4290164535e+01 9.4290164535e+01 0.0000000000e+00 0.0000e+00 1.0000e+00
        2 -1    0    0  501    0 +0.0000000000e+00 -0.0000000000e+00 -6.4743984021e+02 6.4743984021e+02 0.0000000000e+00 0.0000e+00 -1.0000e+00
     -556  1    1    2    0    0 -4.5010841130e+01 +1.0814068624e+02 -4.0505641553e+02 4.6668092269e+02 2.0000000000e+02 0.0000e+00 -1.0000e+00
      556  1    1    2    0    0 +4.5010841130e+01 -1.0814068624e+02 -1.4809326015e+02 2.7504908206e+02 2.0000000000e+02 0.0000e+00 1.0000e+00
<mgrwt>
<rscale>  0 0.49415467E+03</rscale>
<asrwt>0</asrwt>
<pdfrwt beam="2">  1        2 0.99606129E-01 0.49415467E+03</pdfrwt>
<pdfrwt beam="1">  1       -2 0.14506179E-01 0.49415467E+03</pdfrwt>
<totfact> 0.16749893E+03</totfact>
</mgrwt>
</event>
<event>
 4      1 +1.5204000e-02 8.09438700e+02 7.81860800e-03 9.54645500e-02
        2 -1    0    0  501    0 +0.0000000000e+00 +0.0000000000e+00 +5.7515556438e+02 5.7515556438e+02 0.0000000000e+00 0.0000e+00 -1.0000e+00
       -2 -1    0    0    0  501 -0.0000000000e+00 -0.0000000000e+00 -2.8478859904e+02 2.8478859904e+02 0.0000000000e+00 0.0000e+00 1.0000e+00
     -556  1    1    2    0    0 +1.4496595757e+02 -2.5995281034e+02 +3.4452683658e+02 4.9728194577e+02 2.0000000000e+02 0.0000e+00 -1.0000e+00
      556  1    1    2    0    0 -1.4496595757e+02 +2.5995281034e+02 -5.4159871246e+01 3.6266221765e+02 2.0000000000e+02 0.0000e+00 1.0000e+00
<mgrwt>
<rscale>  0 0.80943869E+03</rscale>
<asrwt>0</asrwt>
<pdfrwt beam="1">  1        2 0.88485471E-01 0.80943869E+03</pdfrwt>
<pdfrwt beam="2">  1       -2 0.43813631E-01 0.80943869E+03</pdfrwt>
<totfact> 0.25940611E+02</totfact>
</mgrwt>
</event>
<event>
 4      1 +1.5204000e-02 4.75319600e+02 7.81860800e-03 1.02042900e-01
       -2 -1    0    0    0  501 -0.0000000000e+00 +0.0000000000e+00 +1.7463244441e+02 1.7463244441e+02 0.0000000000e+00 0.0000e+00 1.0000e+00
        2 -1    0    0  501    0 +0.0000000000e+00 -0.0000000000e+00 -3.2343464518e+02 3.2343464518e+02 0.0000000000e+00 0.0000e+00 -1.0000e+00
     -556  1    1    2    0    0 -4.9008662810e+01 -7.0677572689e+01 +2.5475769788e+01 2.1919439582e+02 2.0000000000e+02 0.0000e+00 1.0000e+00
      556  1    1    2    0    0 +4.9008662810e+01 +7.0677572689e+01 -1.7427797055e+02 2.7887269377e+02 2.0000000000e+02 0.0000e+00 -1.0000e+00
<mgrwt>
<rscale>  0 0.47531961E+03</rscale>
<asrwt>0</asrwt>
<pdfrwt beam="2">  1        2 0.49759176E-01 0.47531961E+03</pdfrwt>
<pdfrwt beam="1">  1       -2 0.26866530E-01 0.47531961E+03</pdfrwt>
<totfact> 0.12670166E+03</totfact>
</mgrwt>
</event>
<event>
 4      1 +1.5204000e-02 6.45823500e+02 7.81860800e-03 9.81464800e-02
       -1 -1    0    0    0  501 -0.0000000000e+00 +0.0000000000e+00 +1.0076483043e+02 1.0076483043e+02 0.0000000000e+00 0.0000e+00 1.0000e+00
        1 -1    0    0  501    0 +0.0000000000e+00 -0.0000000000e+00 -1.0348055518e+03 1.0348055518e+03 0.0000000000e+00 0.0000e+00 -1.0000e+00
     -556  1    1    2    0    0 +2.2962610576e+01 -6.1522966479e+00 -9.1082653886e+02 9.3282909267e+02 2.0000000000e+02 0.0000e+00 -1.0000e+00
      556  1    1    2    0    0 -2.2962610576e+01 +6.1522966479e+00 -2.3214182555e+01 2.0274128960e+02 2.0000000000e+02 0.0000e+00 1.0000e+00
<mgrwt>
<rscale>  0 0.64582352E+03</rscale>
<asrwt>0</asrwt>
<pdfrwt beam="2">  1        1 0.15920086E+00 0.64582352E+03</pdfrwt>
<pdfrwt beam="1">  1       -1 0.15502281E-01 0.64582352E+03</pdfrwt>
<totfact> 0.44957094E+02</totfact>
</mgrwt>
</event>
<event>
 4      1 +1.5204000e-02 1.08829500e+03 7.81860800e-03 9.21667600e-02
       -1 -1    0    0    0  501 -0.0000000000e+00 +0.0000000000e+00 +5.3554100347e+02 5.3554100347e+02 0.0000000000e+00 0.0000e+00 1.0000e+00
        1 -1    0    0  501    0 +0.0000000000e+00 -0.0000000000e+00 -5.5289195736e+02 5.5289195736e+02 0.0000000000e+00 0.0000e+00 -1.0000e+00
     -556  1    1    2    0    0 +2.4967114262e+01 +2.5918913203e+02 +4.2530817784e+02 5.3729824966e+02 2.0000000000e+02 0.0000e+00 1.0000e+00
      556  1    1    2    0    0 -2.4967114262e+01 -2.5918913203e+02 -4.4265913172e+02 5.5113471117e+02 2.0000000000e+02 0.0000e+00 -1.0000e+00
<mgrwt>
<rscale>  0 0.10882947E+04</rscale>
<asrwt>0</asrwt>
<pdfrwt beam="2">  1        1 0.85060301E-01 0.10882947E+04</pdfrwt>
<pdfrwt beam="1">  1       -1 0.82390924E-01 0.10882947E+04</pdfrwt>
<totfact> 0.56266884E+01</totfact>
</mgrwt>
</event>
<event>
 4      1 +1.5204000e-02 9.53384400e+02 7.81860800e-03 9.36120300e-02
       -2 -1    0    0    0  501 -0.0000000000e+00 +0.0000000000e+00 +2.1022689617e+02 2.1022689617e+02 0.0000000000e+00 0.0000e+00 -1.0000e+00
        2 -1    0    0  501    0 +0.0000000000e+00 -0.0000000000e+00 -1.0809057087e+03 1.0809057087e+03 0.0000000000e+00 0.0000e+00 1.0000e+00
     -556  1    1    2    0    0 +1.5207130619e+02 -2.2484489148e+02 -8.9169677633e+02 9.5331214631e+02 2.0000000000e+02 0.0000e+00 1.0000e+00
      556  1    1    2    0    0 -1.5207130619e+02 +2.2484489148e+02 +2.1017963834e+01 3.3782045852e+02 2.0000000000e+02 0.0000e+00 -1.0000e+00
<mgrwt>
<rscale>  0 0.95338440E+03</rscale>
<asrwt>0</asrwt>
<pdfrwt beam="2">  1        2 0.16629319E+00 0.95338440E+03</pdfrwt>
<pdfrwt beam="1">  1       -2 0.32342599E-01 0.95338440E+03</pdfrwt>
<totfact> 0.19914681E+02</totfact>
</mgrwt>
</event>
<event>
 4      1 +1.5204000e-02 4.58881200e+02 7.81860800e-03 1.02510600e-01
        1 -1    0    0  501    0 +0.0000000000e+00 +0.0000000000e+00 +1.4513101230e+03 1.4513101230e+03 0.0000000000e+00 0.0000e+00 -1.0000e+00
       -1 -1    0    0    0  501 -0.0000000000e+00 -0.0000000000e+00 -3.6272733453e+01 3.6272733453e+01 0.0000000000e+00 0.0000e+00 1.0000e+00
     -556  1    1    2    0    0 +8.4724634182e+01 -1.1741405669e+01 +9.4411970623e+02 9.6885403645e+02 2.0000000000e+02 0.0000e+00 -1.0000e+00
      556  1    1    2    0    0 -8.4724634182e+01 +1.1741405669e+01 +4.7091768329e+02 5.1872881998e+02 2.0000000000e+02 0.0000e+00 1.0000e+00
<mgrwt>
<rscale>  0 0.45888118E+03</rscale>
<asrwt>0</asrwt>
<pdfrwt beam="1">  1        1 0.22327844E+00 0.45888118E+03</pdfrwt>
<pdfrwt beam="2">  1       -1 0.55804216E-02 0.45888118E+03</pdfrwt>
<totfact> 0.11400297E+03</totfact>
</mgrwt>
</event>
<event>
 4      1 +1.5204000e-02 5.82409100e+02 7.81860800e-03 9.94258900e-02
        1 -1    0    0  501    0 +0.0000000000e+00 +0.0000000000e+00 +1.5018031531e+03 1.5018031531e+03 0.0000000000e+00 0.0000e+00 -1.0000e+00
       -1 -1    0    0    0  501 -0.0000000000e+00 -0.0000000000e+00 -5.6465513757e+01 5.6465513757e+01 0.0000000000e+00 0.0000e+00 1.0000e+00
     -556  1    1    2    0    0 +1.0892024957e+02 -5.2576728987e+01 +1.1874166256e+03 1.2102008825e+03 2.0000000000e+02 0.0000e+00 -1.0000e+00
      556  1    1    2    0    0 -1.0892024957e+02 +5.2576728987e+01 +2.5792101376e+02 3.4806778440e+02 2.0000000000e+02 0.0000e+00 1.0000e+00
<mgrwt>
<rscale>  0 0.58240909E+03</rscale>
<asrwt>0</asrwt>
<pdfrwt beam="1">  1        1 0.23104661E+00 0.58240909E+03</pdfrwt>
<pdfrwt beam="2">  1       -1 0.86870033E-02 0.58240909E+03</pdfrwt>
<totfact> 0.52804317E+02</totfact>
</mgrwt>
</event>
<event>
 4      1 +1.5204000e-02 6.48554700e+02 7.81860800e-03 9.80949500e-02
       -2 -1    0    0    0  501 -0.0000000000e+00 +0.0000000000e+00 +3.2625668168e+01 3.2625668168e+01 0.0000000000e+00 0.0000e+00 1.0000e+00
        2 -1    0    0  501    0 +0.0000000000e+00 -0.0000000000e+00 -3.2230997810e+03 3.2230997810e+03 0.0000000000e+00 0.0000e+00 -1.0000e+00
     -556  1    1    2    0    0 -1.6689731317e+01 +4.6985875451e+01 -3.3854307934e+02 3.9635544174e+02 2.0000000000e+02 0.0000e+00 1.0000e+00
      556  1    1    2    0    0 +1.6689731317e+01 -4.6985875451e+01 -2.8519310335e+03 2.8593700075e+03 2.0000000000e+02 0.0000e+00 -1.0000e+00
<mgrwt>
<rscale>  0 0.64855465E+03</rscale>
<asrwt>0</asrwt>
<pdfrwt beam="2">  1        2 0.49586168E+00 0.64855465E+03</pdfrwt>
<pdfrwt beam="1">  1       -2 0.50193317E-02 0.64855465E+03</pdfrwt>
<totfact> 0.27690654E+02</totfact>
</mgrwt>
</event>
<event>
 4      1 +1.5204000e-02 6.77414500e+02 7.81860800e-03 9.75665600e-02
       -2 -1    0    0    0  501 -0.0000000000e+00 +0.0000000000e+00 +1.1849361502e+02 1.1849361502e+02 0.0000000000e+00 0.0000e+00 1.0000e+00
        2 -1    0    0  501    0 +0.0000000000e+00 -0.0000000000e+00 -9.6817530554e+02 9.6817530554e+02 0.0000000000e+00 0.0000e+00 -1.0000e+00
     -556  1    1    2    0    0 -1.4130104121e+02 -2.3370387842e+02 -4.0592115736e+02 5.2854089059e+02 2.0000000000e+02 0.0000e+00 1.0000e+00
      556  1    1    2    0    0 +1.4130104121e+02 +2.3370387842e+02 -4.4376053317e+02 5.5812802997e+02 2.0000000000e+02 0.0000e+00 -1.0000e+00
<mgrwt>
<rscale>  0 0.67741447E+03</rscale>
<asrwt>0</asrwt>
<pdfrwt beam="2">  1        2 0.14895004E+00 0.67741447E+03</pdfrwt>
<pdfrwt beam="1">  1       -2 0.18229788E-01 0.67741447E+03</pdfrwt>
<totfact> 0.66727419E+02</totfact>
</mgrwt>
</event>
<event>
 4      1 +1.5204000e-02 6.52551500e+02 7.81860800e-03 9.80200300e-02
        1 -1    0    0  501    0 +0.0000000000e+00 +0.0000000000e+00 +2.7974967921e+02 2.7974967921e+02 0.0000000000e+00 0.0000e+00 -1.0000e+00
       -1 -1    0    0    0  501 -0.0000000000e+00 -0.0000000000e+00 -3.8053974925e+02 3.8053974925e+02 0.0000000000e+00 0.0000e+00 1.0000e+00
     -556  1    1    2    0    0 +9.7561699720e+01 -2.3644525895e+02 -8.2888549256e+01 3.3510469607e+02 2.0000000000e+02 0.0000e+00 -1.0000e+00
      556  1    1    2    0    0 -9.7561699720e+01 +2.3644525895e+02 -1.7901520786e+01 3.2518473239e+02 2.0000000000e+02 0.0000e+00 1.0000e+00
<mgrwt>
<rscale>  0 0.65255152E+03</rscale>
<asrwt>0</asrwt>
<pdfrwt beam="1">  1        1 0.43038412E-01 0.65255152E+03</pdfrwt>
<pdfrwt beam="2">  1       -1 0.58544577E-01 0.65255152E+03</pdfrwt>
<totfact> 0.28805600E+02</totfact>
</mgrwt>
</event>
<event>
 4      1 +1.5204000e-02 1.13470500e+03 7.81860800e-03 9.17201000e-02
       -2 -1    0    0    0  501 -0.0000000000e+00 +0.0000000000e+00 +2.3082525470e+02 2.3082525470e+02 0.0000000000e+00 0.0000e+00 -1.0000e+00
        2 -1    0    0  501    0 +0.0000000000e+00 -0.0000000000e+00 -1.3945143443e+03 1.3945143443e+03 0.0000000000e+00 0.0000e+00 1.0000e+00
     -556  1    1    2    0    0 -4.3929705604e+02 -1.7782659026e+02 -2.3901269983e+02 5.6721360203e+02 2.0000000000e+02 0.0000e+00 -1.0000e+00
      556  1    1    2    0    0 +4.3929705604e+02 +1.7782659026e+02 -9.2467638973e+02 1.0581259969e+03 2.0000000000e+02 0.0000e+00 1.0000e+00
<mgrwt>
<rscale>  0 0.11347055E+04</rscale>
<asrwt>0</asrwt>
<pdfrwt beam="2">  1        2 0.21454067E+00 0.11347055E+04</pdfrwt>
<pdfrwt beam="1">  1       -2 0.35511577E-01 0.11347055E+04</pdfrwt>
<totfact> 0.10751115E+02</totfact>
</mgrwt>
</event>
<event>
 4      1 +1.5204000e-02 4.18387200e+02 7.81860800e-03 1.03759200e-01
        2 -1    0    0  501    0 +0.0000000000e+00 +0.0000000000e+00 +2.2664888628e+02 2.2664888628e+02 0.0000000000e+00 0.0000e+00 -1.0000e+00
       -2 -1    0    0    0  501 -0.0000000000e+00 -0.0000000000e+00 -1.9308262019e+02 1.9308262019e+02 0.0000000000e+00 0.0000e+00 1.0000e+00
     -556  1    1    2    0    0 -4.4792064248e+01 -3.3208202665e+00 -2.5119529049e+01 2.0651476365e+02 2.0000000000e+02 0.0000e+00 1.0000e+00
      556  1    1    2    0    0 +4.4792064248e+01 +3.3208202665e+00 +5.8685795132e+01 2.1321674282e+02 2.0000000000e+02 0.0000e+00 -1.0000e+00
<mgrwt>
<rscale>  0 0.41838719E+03</rscale>
<asrwt>0</asrwt>
<pdfrwt beam="1">  1        2 0.34869059E-01 0.41838719E+03</pdfrwt>
<pdfrwt beam="2">  1       -2 0.29705019E-01 0.41838719E+03</pdfrwt>
<totfact> 0.15577734E+03</totfact>
</mgrwt>
</event>
<event>
 4      1 +1.5204000e-02 7.10913700e+02 7.81860800e-03 9.69874800e-02
       -1 -1    0    0    0  501 -0.0000000000e+00 +0.0000000000e+00 +2.4178516860e+02 2.4178516860e+02 0.0000000000e+00 0.0000e+00 1.0000e+00
        1 -1    0    0  501    0 +0.0000000000e+00 -0.0000000000e+00 -5.2256951201e+02 5.2256951201e+02 0.0000000000e+00 0.0000e+00 -1.0000e+00
     -556  1    1    2    0    0 -2.2337180186e+02 +1.7308005183e+02 -5.3723070255e+01 3.5033959879e+02 2.0000000000e+02 0.0000e+00 1.0000e+00
      556  1    1    2    0    0 +2.2337180186e+02 -1.7308005183e+02 -2.2706127315e+02 4.1401508182e+02 2.0000000000e+02 0.0000e+00 -1.0000e+00
<mgrwt>
<rscale>  0 0.71091366E+03</rscale>
<asrwt>0</asrwt>
<pdfrwt beam="2">  1        1 0.80395309E-01 0.71091366E+03</pdfrwt>
<pdfrwt beam="1">  1       -1 0.37197719E-01 0.71091366E+03</pdfrwt>
<totfact> 0.29335016E+02</totfact>
</mgrwt>
</event>
<event>
 4      1 +1.5204000e-02 5.97174900e+02 7.81860800e-03 9.91128500e-02
       -2 -1    0    0    0  501 -0.0000000000e+00 +0.0000000000e+00 +3.2884728549e+01 3.2884728549e+01 0.0000000000e+00 0.0000e+00 1.0000e+00
        2 -1    0    0  501    0 +0.0000000000e+00 -0.0000000000e+00 -2.7111204821e+03 2.7111204821e+03 0.0000000000e+00 0.0000e+00 -1.0000e+00
     -556  1    1    2    0    0 -5.3533927391e+01 +8.2963461437e+01 -2.2512602056e+03 2.2622823278e+03 2.0000000000e+02 0.0000e+00 -1.0000e+00
      556  1    1    2    0    0 +5.3533927391e+01 -8.2963461437e+01 -4.2697554790e+02 4.8172288281e+02 2.0000000000e+02 0.0000e+00 1.0000e+00
<mgrwt>
<rscale>  0 0.59717489E+03</rscale>
<asrwt>0</asrwt>
<pdfrwt beam="2">  1        2 0.41709558E+00 0.59717489E+03</pdfrwt>
<pdfrwt beam="1">  1       -2 0.50591875E-02 0.59717489E+03</pdfrwt>
<totfact> 0.56195681E+02</totfact>
</mgrwt>
</event>
<event>
 4      1 +1.5204000e-02 4.25393000e+02 7.81860800e-03 1.03532500e-01
        2 -1    0    0  501    0 +0.0000000000e+00 +0.0000000000e+00 +4.9287954192e+02 4.9287954192e+02 0.0000000000e+00 0.0000e+00 -1.0000e+00
       -2 -1    0    0    0  501 -0.0000000000e+00 -0.0000000000e+00 -9.1786740441e+01 9.1786740441e+01 0.0000000000e+00 0.0000e+00 1.0000e+00
     -556  1    1    2    0    0 +1.4110997868e+01 +3.0197202636e+01 +1.1223222705e+02 2.3174784594e+02 2.0000000000e+02 0.0000e+00 1.0000e+00
      556  1    1    2    0    0 -1.4110997868e+01 -3.0197202636e+01 +2.8886057443e+02 3.5291843643e+02 2.0000000000e+02 0.0000e+00 -1.0000e+00
<mgrwt>
<rscale>  0 0.42539303E+03</rscale>
<asrwt>0</asrwt>
<pdfrwt beam="1">  1        2 0.75827620E-01 0.42539303E+03</pdfrwt>
<pdfrwt beam="2">  1       -2 0.14121037E-01 0.42539303E+03</pdfrwt>
<totfact> 0.24093397E+03</totfact>
</mgrwt>
</event>
<event>
 4      1 +1.5204000e-02 7.22044400e+02 7.81860800e-03 9.68025900e-02
       -2 -1    0    0    0  501 -0.0000000000e+00 +0.0000000000e+00 +1.6663567648e+02 1.6663567648e+02 0.0000000000e+00 0.0000e+00 -1.0000e+00
        2 -1    0    0  501    0 +0.0000000000e+00 -0.0000000000e+00 -7.8216756897e+02 7.8216756897e+02 0.0000000000e+00 0.0000e+00 1.0000e+00
     -556  1    1    2    0    0 -1.9033212889e+02 +1.1186509909e+02 -3.9761027944e+01 3.0053462201e+02 2.0000000000e+02 0.0000e+00 -1.0000e+00
      556  1    1    2    0    0 +1.9033212889e+02 -1.1186509909e+02 -5.7577086455e+02 6.4826862345e+02 2.0000000000e+02 0.0000e+00 1.0000e+00
<mgrwt>
<rscale>  0 0.72204438E+03</rscale>
<asrwt>0</asrwt>
<pdfrwt beam="2">  1        2 0.12033347E+00 0.72204438E+03</pdfrwt>
<pdfrwt beam="1">  1       -2 0.25636258E-01 0.72204438E+03</pdfrwt>
<totfact> 0.48884255E+02</totfact>
</mgrwt>
</event>
<event>
 4      1 +1.5204000e-02 9.05103800e+02 7.81860800e-03 9.41922400e-02
       -2 -1    0    0    0  501 -0.0000000000e+00 +0.0000000000e+00 +2.7803731050e+02 2.7803731050e+02 0.0000000000e+00 0.0000e+00 -1.0000e+00
        2 -1    0    0  501    0 +0.0000000000e+00 -0.0000000000e+00 -7.3660338905e+02 7.3660338905e+02 0.0000000000e+00 0.0000e+00 1.0000e+00
     -556  1    1    2    0    0 +2.6179468524e+02 -2.3749525120e+02 -4.5310239650e+02 6.0847533498e+02 2.0000000000e+02 0.0000e+00 1.0000e+00
      556  1    1    2    0    0 -2.6179468524e+02 +2.3749525120e+02 -5.4636820514e+00 4.0616536458e+02 2.0000000000e+02 0.0000e+00 -1.0000e+00
<mgrwt>
<rscale>  0 0.90510381E+03</rscale>
<asrwt>0</asrwt>
<pdfrwt beam="2">  1        2 0.11332360E+00 0.90510381E+03</pdfrwt>
<pdfrwt beam="1">  1       -2 0.42774971E-01 0.90510381E+03</pdfrwt>
<totfact> 0.19936546E+02</totfact>
</mgrwt>
</event>
<event>
 4      1 +1.5204000e-02 5.04270400e+02 7.81860800e-03 1.01267000e-01
       -1 -1    0    0    0  501 -0.0000000000e+00 +0.0000000000e+00 +1.1547508392e+02 1.1547508392e+02 0.0000000000e+00 0.0000e+00 1.0000e+00
        1 -1    0    0  501    0 +0.0000000000e+00 -0.0000000000e+00 -5.5052711908e+02 5.5052711908e+02 0.0000000000e+00 0.0000e+00 -1.0000e+00
     -556  1    1    2    0    0 -9.8703842768e+01 +5.9126030862e+01 -8.3267203343e+01 2.4529933399e+02 2.0000000000e+02 0.0000e+00 1.0000e+00
      556  1    1    2    0    0 +9.8703842768e+01 -5.9126030862e+01 -3.5178483181e+02 4.2070286901e+02 2.0000000000e+02 0.0000e+00 -1.0000e+00
<mgrwt>
<rscale>  0 0.50427042E+03</rscale>
<asrwt>0</asrwt>
<pdfrwt beam="2">  1        1 0.84696483E-01 0.50427042E+03</pdfrwt>
<pdfrwt beam="1">  1       -1 0.17765397E-01 0.50427042E+03</pdfrwt>
<totfact> 0.96981660E+02</totfact>
</mgrwt>
</event>
<event>
 4      1 +1.5204000e-02 5.81175600e+02 7.81860800e-03 9.94524900e-02
        1 -1    0    0  501    0 +0.0000000000e+00 +0.0000000000e+00 +1.0524492781e+03 1.0524492781e+03 0.0000000000e+00 0.0000e+00 -1.0000e+00
       -1 -1    0    0    0  501 -0.0000000000e+00 -0.0000000000e+00 -8.0233106592e+01 8.0233106592e+01 0.0000000000e+00 0.0000e+00 1.0000e+00
     -556  1    1    2    0    0 -2.0086532432e+01 +4.5383493659e+01 +8.8542010283e+02 9.0908299334e+02 2.0000000000e+02 0.0000e+00 -1.0000e+00
      556  1    1    2    0    0 +2.0086532432e+01 -4.5383493659e+01 +8.6796068702e+01 2.2359939138e+02 2.0000000000e+02 0.0000e+00 1.0000e+00
<mgrwt>
<rscale>  0 0.58117562E+03</rscale>
<asrwt>0</asrwt>
<pdfrwt beam="1">  1        1 0.16191526E+00 0.58117562E+03</pdfrwt>
<pdfrwt beam="2">  1       -1 0.12343556E-01 0.58117562E+03</pdfrwt>
<totfact> 0.63125029E+02</totfact>
</mgrwt>
</event>
<event>
 4      1 +1.5204000e-02 5.64771300e+02 7.81860800e-03 9.98131600e-02
        2 -1    0    0  501    0 +0.0000000000e+00 +0.0000000000e+00 +2.9439611697e+02 2.9439611697e+02 0.0000000000e+00 0.0000e+00 -1.0000e+00
       -2 -1    0    0    0  501 -0.0000000000e+00 -0.0000000000e+00 -2.7086513976e+02 2.7086513976e+02 0.0000000000e+00 0.0000e+00 1.0000e+00
     -556  1    1    2    0    0 +1.4547451952e+02 +1.2729519014e+02 -3.7008136606e+01 2.8060025559e+02 2.0000000000e+02 0.0000e+00 -1.0000e+00
      556  1    1    2    0    0 -1.4547451952e+02 -1.2729519014e+02 +6.0539113814e+01 2.8466100113e+02 2.0000000000e+02 0.0000e+00 1.0000e+00
<mgrwt>
<rscale>  0 0.56477126E+03</rscale>
<asrwt>0</asrwt>
<pdfrwt beam="1">  1        2 0.45291710E-01 0.56477126E+03</pdfrwt>
<pdfrwt beam="2">  1       -2 0.41671560E-01 0.56477126E+03</pdfrwt>
<totfact> 0.61599788E+02</totfact>
</mgrwt>
</event>
<event>
 4      1 +1.5204000e-02 5.79721000e+02 7.81860800e-03 9.94839500e-02
        4 -1    0    0  501    0 +0.0000000000e+00 +0.0000000000e+00 +1.1448571150e+02 1.1448571150e+02 0.0000000000e+00 0.0000e+00 -1.0000e+00
       -4 -1    0    0    0  501 -0.0000000000e+00 -0.0000000000e+00 -7.3388295696e+02 7.3388295696e+02 0.0000000000e+00 0.0000e+00 1.0000e+00
     -556  1    1    2    0    0 -1.0366751388e+02 -9.9307042988e+01 -5.3360620177e+02 5.8766012353e+02 2.0000000000e+02 0.0000e+00 1.0000e+00
      556  1    1    2    0    0 +1.0366751388e+02 +9.9307042988e+01 -8.5791043697e+01 2.6070854493e+02 2.0000000000e+02 0.0000e+00 -1.0000e+00
<mgrwt>
<rscale>  0 0.57972101E+03</rscale>
<asrwt>0</asrwt>
<pdfrwt beam="1">  1        4 0.17613186E-01 0.57972101E+03</pdfrwt>
<pdfrwt beam="2">  1       -4 0.11290507E+00 0.57972101E+03</pdfrwt>
<totfact> 0.35391641E+01</totfact>
</mgrwt>
</event>
<event>
 4      1 +1.5204000e-02 1.00936400e+03 7.81860800e-03 9.29833300e-02
        1 -1    0    0  501    0 +0.0000000000e+00 +0.0000000000e+00 +4.5318064914e+02 4.5318064914e+02 0.0000000000e+00 0.0000e+00 -1.0000e+00
       -1 -1    0    0    0  501 -0.0000000000e+00 -0.0000000000e+00 -5.6203660644e+02 5.6203660644e+02 0.0000000000e+00 0.0000e+00 1.0000e+00
     -556  1    1    2    0    0 -1.3995500935e+02 +1.4232289931e+00 -4.9870719024e+02 5.5524615426e+02 2.0000000000e+02 0.0000e+00 1.0000e+00
      556  1    1    2    0    0 +1.3995500935e+02 -1.4232289931e+00 +3.8985123294e+02 4.5997110132e+02 2.0000000000e+02 0.0000e+00 -1.0000e+00
<mgrwt>
<rscale>  0 0.10093644E+04</rscale>
<asrwt>0</asrwt>
<pdfrwt beam="1">  1        1 0.69720100E-01 0.10093644E+04</pdfrwt>
<pdfrwt beam="2">  1       -1 0.86467171E-01 0.10093644E+04</pdfrwt>
<totfact> 0.67076998E+01</totfact>
</mgrwt>
</event>
<event>
 4      1 +1.5204000e-02 4.50117400e+02 7.81860800e-03 1.02768700e-01
       -2 -1    0    0    0  501 -0.0000000000e+00 +0.0000000000e+00 +4.9981698547e+01 4.9981698547e+01 0.0000000000e+00 0.0000e+00 1.0000e+00
        2 -1    0    0  501    0 +0.0000000000e+00 -0.0000000000e+00 -1.0133993531e+03 1.0133993531e+03 0.0000000000e+00 0.0000e+00 -1.0000e+00
     -556  1    1    2    0    0 +4.2444719978e+00 -5.5429714752e+01 -2.7628474766e+02 3.4557738729e+02 2.0000000000e+02 0.0000e+00 1.0000e+00
      556  1    1    2    0    0 -4.2444719978e+00 +5.5429714752e+01 -6.8713290690e+02 7.1780366436e+02 2.0000000000e+02 0.0000e+00 -1.0000e+00
<mgrwt>
<rscale>  0 0.45011741E+03</rscale>
<asrwt>0</asrwt>
<pdfrwt beam="2">  1        2 0.15590758E+00 0.45011741E+03</pdfrwt>
<pdfrwt beam="1">  1       -2 0.76894926E-02 0.45011741E+03</pdfrwt>
<totfact> 0.25981822E+03</totfact>
</mgrwt>
</event>
<event>
 4      1 +1.5204000e-02 6.67719900e+02 7.81860800e-03 9.77408600e-02
       -2 -1    0    0    0  501 -0.0000000000e+00 +0.0000000000e+00 +1.1547708838e+02 1.1547708838e+02 0.0000000000e+00 0.0000e+00 -1.0000e+00
        2 -1    0    0  501    0 +0.0000000000e+00 -0.0000000000e+00 -9.6523457413e+02 9.6523457413e+02 0.0000000000e+00 0.0000e+00 1.0000e+00
     -556  1    1    2    0    0 +4.7652235544e+01 +1.8430069251e+02 -7.2864601420e+02 7.7920632366e+02 2.0000000000e+02 0.0000e+00 1.0000e+00
      556  1    1    2    0    0 -4.7652235544e+01 -1.8430069251e+02 -1.2111147155e+02 3.0150533885e+02 2.0000000000e+02 0.0000e+00 -1.0000e+00
<mgrwt>
<rscale>  0 0.66771994E+03</rscale>
<asrwt>0</asrwt>
<pdfrwt beam="2">  1        2 0.14849762E+00 0.66771994E+03</pdfrwt>
<pdfrwt beam="1">  1       -2 0.17765707E-01 0.66771994E+03</pdfrwt>
<totfact> 0.70088380E+02</totfact>
</mgrwt>
</event>
<event>
 4      1 +1.5204000e-02 6.22081500e+02 7.81860800e-03 9.86062400e-02
        1 -1    0    0  501    0 +0.0000000000e+00 +0.0000000000e+00 +4.2763420212e+02 4.2763420212e+02 0.0000000000e+00 0.0000e+00 -1.0000e+00
       -1 -1    0    0    0  501 -0.0000000000e+00 -0.0000000000e+00 -2.2623620386e+02 2.2623620386e+02 0.0000000000e+00 0.0000e+00 1.0000e+00
     -556  1    1    2    0    0 +5.5973559876e+01 +2.2795124390e+02 +5.7983293153e+01 3.1377837925e+02 2.0000000000e+02 0.0000e+00 1.0000e+00
      556  1    1    2    0    0 -5.5973559876e+01 -2.2795124390e+02 +1.4341470510e+02 3.4009202672e+02 2.0000000000e+02 0.0000e+00 -1.0000e+00
<mgrwt>
<rscale>  0 0.62208147E+03</rscale>
<asrwt>0</asrwt>
<pdfrwt beam="1">  1        1 0.65789877E-01 0.62208147E+03</pdfrwt>
<pdfrwt beam="2">  1       -1 0.34805570E-01 0.62208147E+03</pdfrwt>
<totfact> 0.43496519E+02</totfact>
</mgrwt>
</event>
<event>
 4      1 +1.5204000e-02 4.33718900e+02 7.81860800e-03 1.03269200e-01
        2 -1    0    0  501    0 +0.0000000000e+00 +0.0000000000e+00 +4.9321006134e+02 4.9321006134e+02 0.0000000000e+00 0.0000e+00 -1.0000e+00
       -2 -1    0    0    0  501 -0.0000000000e+00 -0.0000000000e+00 -9.5350889290e+01 9.5350889290e+01 0.0000000000e+00 0.0000e+00 1.0000e+00
     -556  1    1    2    0    0 +7.3537844421e+01 -2.1131037582e+00 +2.5347630164e+02 3.3115331081e+02 2.0000000000e+02 0.0000e+00 -1.0000e+00
      556  1    1    2    0    0 -7.3537844421e+01 +2.1131037582e+00 +1.4438287042e+02 2.5740763982e+02 2.0000000000e+02 0.0000e+00 1.0000e+00
<mgrwt>
<rscale>  0 0.43371889E+03</rscale>
<asrwt>0</asrwt>
<pdfrwt beam="1">  1        2 0.75878470E-01 0.43371889E+03</pdfrwt>
<pdfrwt beam="2">  1       -2 0.14669368E-01 0.43371889E+03</pdfrwt>
<totfact> 0.22600252E+03</totfact>
</mgrwt>
</event>
<event>
 4      1 +1.5204000e-02 1.02293000e+03 7.81860800e-03 9.28374700e-02
       -1 -1    0    0    0  501 -0.0000000000e+00 +0.0000000000e+00 +2.2746913668e+02 2.2746913668e+02 0.0000000000e+00 0.0000e+00 1.0000e+00
        1 -1    0    0  501    0 +0.0000000000e+00 -0.0000000000e+00 -1.1500297146e+03 1.1500297146e+03 0.0000000000e+00 0.0000e+00 -1.0000e+00
     -556  1    1    2    0    0 +7.0460298506e+01 -7.9729109953e+01 +1.5622286162e+02 2.7518533233e+02 2.0000000000e+02 0.0000e+00 1.0000e+00
      556  1    1    2    0    0 -7.0460298506e+01 +7.9729109953e+01 -1.0787834396e+03 1.1023135190e+03 2.0000000000e+02 0.0000e+00 -1.0000e+00
<mgrwt>
<rscale>  0 0.10229296E+04</rscale>
<asrwt>0</asrwt>
<pdfrwt beam="2">  1        1 0.17692765E+00 0.10229296E+04</pdfrwt>
<pdfrwt beam="1">  1       -1 0.34995252E-01 0.10229296E+04</pdfrwt>
<totfact> 0.90304317E+01</totfact>
</mgrwt>
</event>
<event>
 4      1 +1.5204000e-02 6.66268000e+02 7.81860800e-03 9.77672300e-02
       -2 -1    0    0    0  501 -0.0000000000e+00 +0.0000000000e+00 +1.6414084472e+02 1.6414084472e+02 0.0000000000e+00 0.0000e+00 -1.0000e+00
        2 -1    0    0  501    0 +0.0000000000e+00 -0.0000000000e+00 -6.7611600789e+02 6.7611600789e+02 0.0000000000e+00 0.0000e+00 1.0000e+00
     -556  1    1    2    0    0 -2.1783741811e+02 +1.0791535795e+02 -1.1853270582e+02 3.3637608054e+02 2.0000000000e+02 0.0000e+00 -1.0000e+00
      556  1    1    2    0    0 +2.1783741811e+02 -1.0791535795e+02 -3.9344245735e+02 5.0388077207e+02 2.0000000000e+02 0.0000e+00 1.0000e+00
<mgrwt>
<rscale>  0 0.66626797E+03</rscale>
<asrwt>0</asrwt>
<pdfrwt beam="2">  1        2 0.10401785E+00 0.66626797E+03</pdfrwt>
<pdfrwt beam="1">  1       -2 0.25252437E-01 0.66626797E+03</pdfrwt>
<totfact> 0.60602158E+02</totfact>
</mgrwt>
</event>
<event>
 4      1 +1.5204000e-02 5.54546200e+02 7.81860800e-03 1.00044700e-01
        2 -1    0    0  501    0 +0.0000000000e+00 +0.0000000000e+00 +6.8132287506e+02 6.8132287506e+02 0.0000000000e+00 0.0000e+00 1.0000e+00
       -2 -1    0    0    0  501 -0.0000000000e+00 -0.0000000000e+00 -1.1283983345e+02 1.1283983345e+02 0.0000000000e+00 0.0000e+00 -1.0000e+00
     -556  1    1    2    0    0 +1.6076427018e+02 +6.6577075458e+01 +4.0060927315e+02 4.8038052342e+02 2.0000000000e+02 0.0000e+00 1.0000e+00
      556  1    1    2    0    0 -1.6076427018e+02 -6.6577075458e+01 +1.6787376846e+02 3.1378218509e+02 2.0000000000e+02 0.0000e+00 -1.0000e+00
<mgrwt>
<rscale>  0 0.55454616E+03</rscale>
<asrwt>0</asrwt>
<pdfrwt beam="1">  1        2 0.10481890E+00 0.55454616E+03</pdfrwt>
<pdfrwt beam="2">  1       -2 0.17359975E-01 0.55454616E+03</pdfrwt>
<totfact> 0.11610978E+03</totfact>
</mgrwt>
</event>
<event>
 4      1 +1.5204000e-02 6.74150300e+02 7.81860800e-03 9.76248900e-02
        1 -1    0    0  501    0 +0.0000000000e+00 +0.0000000000e+00 +1.9853838112e+02 1.9853838112e+02 0.0000000000e+00 0.0000e+00 -1.0000e+00
       -1 -1    0    0    0  501 -0.0000000000e+00 -0.0000000000e+00 -5.7228050698e+02 5.7228050698e+02 0.0000000000e+00 0.0000e+00 1.0000e+00
     -556  1    1    2    0    0 -1.0773937844e+02 -5.9393382946e+01 -4.6338388685e+02 5.1948048491e+02 2.0000000000e+02 0.0000e+00 1.0000e+00
      556  1    1    2    0    0 +1.0773937844e+02 +5.9393382946e+01 +8.9641760991e+01 2.5133840319e+02 2.0000000000e+02 0.0000e+00 -1.0000e+00
<mgrwt>
<rscale>  0 0.67415027E+03</rscale>
<asrwt>0</asrwt>
<pdfrwt beam="1">  1        1 0.30544367E-01 0.67415027E+03</pdfrwt>
<pdfrwt beam="2">  1       -1 0.88043154E-01 0.67415027E+03</pdfrwt>
<totfact> 0.19342390E+02</totfact>
</mgrwt>
</event>
<event>
 4      1 +1.5204000e-02 7.78684000e+02 7.81860800e-03 9.59139400e-02
       -2 -1    0    0    0  501 -0.0000000000e+00 +0.0000000000e+00 +8.3630916936e+02 8.3630916936e+02 0.0000000000e+00 0.0000e+00 1.0000e+00
        2 -1    0    0  501    0 +0.0000000000e+00 -0.0000000000e+00 -1.8125735536e+02 1.8125735536e+02 0.0000000000e+00 0.0000e+00 -1.0000e+00
     -556  1    1    2    0    0 +2.8535858427e+02 -8.6298110798e+01 +1.3059538642e+02 3.8201052407e+02 2.0000000000e+02 0.0000e+00 -1.0000e+00
      556  1    1    2    0    0 -2.8535858427e+02 +8.6298110798e+01 +5.2445642758e+02 6.3555600066e+02 2.0000000000e+02 0.0000e+00 1.0000e+00
<mgrwt>
<rscale>  0 0.77868399E+03</rscale>
<asrwt>0</asrwt>
<pdfrwt beam="2">  1        2 0.27885747E-01 0.77868399E+03</pdfrwt>
<pdfrwt beam="1">  1       -2 0.12866295E+00 0.77868399E+03</pdfrwt>
<totfact> 0.86932707E+01</totfact>
</mgrwt>
</event>
<event>
 4      1 +1.5204000e-02 5.96428100e+02 7.81860800e-03 9.91284400e-02
        2 -1    0    0  501    0 +0.0000000000e+00 +0.0000000000e+00 +1.2919065145e+02 1.2919065145e+02 0.0000000000e+00 0.0000e+00 -1.0000e+00
       -2 -1    0    0    0  501 -0.0000000000e+00 -0.0000000000e+00 -6.8837508251e+02 6.8837508251e+02 0.0000000000e+00 0.0000e+00 1.0000e+00
     -556  1    1    2    0    0 -1.7992219449e+02 +8.8208502039e+01 -4.0802750248e+02 4.9662780700e+02 2.0000000000e+02 0.0000e+00 1.0000e+00
      556  1    1    2    0    0 +1.7992219449e+02 -8.8208502039e+01 -1.5115692858e+02 3.2093792696e+02 2.0000000000e+02 0.0000e+00 -1.0000e+00
<mgrwt>
<rscale>  0 0.59642812E+03</rscale>
<asrwt>0</asrwt>
<pdfrwt beam="1">  1        2 0.19875484E-01 0.59642812E+03</pdfrwt>
<pdfrwt beam="2">  1       -2 0.10590386E+00 0.59642812E+03</pdfrwt>
<totfact> 0.20871823E+02</totfact>
</mgrwt>
</event>
<event>
 4      1 +1.5204000e-02 5.54418200e+02 7.81860800e-03 1.00047600e-01
       -2 -1    0    0    0  501 -0.0000000000e+00 +0.0000000000e+00 +6.1738810032e+01 6.1738810032e+01 0.0000000000e+00 0.0000e+00 1.0000e+00
        2 -1    0    0  501    0 +0.0000000000e+00 -0.0000000000e+00 -1.2446773061e+03 1.2446773061e+03 0.0000000000e+00 0.0000e+00 -1.0000e+00
     -556  1    1    2    0    0 -8.4676819407e+01 -2.8438009913e+01 -1.9112147999e+02 2.9069968054e+02 2.0000000000e+02 0.0000e+00 1.0000e+00
      556  1    1    2    0    0 +8.4676819407e+01 +2.8438009913e+01 -9.9181701608e+02 1.0157164356e+03 2.0000000000e+02 0.0000e+00 -1.0000e+00
<mgrwt>
<rscale>  0 0.55441824E+03</rscale>
<asrwt>0</asrwt>
<pdfrwt beam="2">  1        2 0.19148882E+00 0.55441824E+03</pdfrwt>
<pdfrwt beam="1">  1       -2 0.94982782E-02 0.55441824E+03</pdfrwt>
<totfact> 0.13468139E+03</totfact>
</mgrwt>
</event>
<event>
 4      1 +1.5204000e-02 7.10288400e+02 7.81860800e-03 9.69979800e-02
       -1 -1    0    0    0  501 -0.0000000000e+00 +0.0000000000e+00 +1.0698035062e+02 1.0698035062e+02 0.0000000000e+00 0.0000e+00 1.0000e+00
        1 -1    0    0  501    0 +0.0000000000e+00 -0.0000000000e+00 -1.1789771310e+03 1.1789771310e+03 0.0000000000e+00 0.0000e+00 -1.0000e+00
     -556  1    1    2    0    0 -1.9800317140e+02 +1.8768337896e+02 -3.4019029201e+02 4.7974966535e+02 2.0000000000e+02 0.0000e+00 -1.0000e+00
      556  1    1    2    0    0 +1.9800317140e+02 -1.8768337896e+02 -7.3180648839e+02 8.0620781630e+02 2.0000000000e+02 0.0000e+00 1.0000e+00
<mgrwt>
<rscale>  0 0.71028836E+03</rscale>
<asrwt>0</asrwt>
<pdfrwt beam="2">  1        1 0.18138112E+00 0.71028836E+03</pdfrwt>
<pdfrwt beam="1">  1       -1 0.16458514E-01 0.71028836E+03</pdfrwt>
<totfact> 0.31750925E+02</totfact>
</mgrwt>
</event>
<event>
 4      1 +1.5204000e-02 8.97727200e+02 7.81860800e-03 9.42842700e-02
       -2 -1    0    0    0  501 -0.0000000000e+00 +0.0000000000e+00 +2.2953518404e+02 2.2953518404e+02 0.0000000000e+00 0.0000e+00 1.0000e+00
        2 -1    0    0  501    0 +0.0000000000e+00 -0.0000000000e+00 -8.7776754194e+02 8.7776754194e+02 0.0000000000e+00 0.0000e+00 -1.0000e+00
     -556  1    1    2    0    0 -1.5120955857e+02 +3.6967484135e+02 -3.7864972574e+02 5.8557615536e+02 2.0000000000e+02 0.0000e+00 1.0000e+00
      556  1    1    2    0    0 +1.5120955857e+02 -3.6967484135e+02 -2.6958263216e+02 5.2172657062e+02 2.0000000000e+02 0.0000e+00 -1.0000e+00
<mgrwt>
<rscale>  0 0.89772721E+03</rscale>
<asrwt>0</asrwt>
<pdfrwt beam="2">  1        2 0.13504116E+00 0.89772721E+03</pdfrwt>
<pdfrwt beam="1">  1       -2 0.35313106E-01 0.89772721E+03</pdfrwt>
<totfact> 0.22907529E+02</totfact>
</mgrwt>
</event>
<event>
 4      1 +1.5204000e-02 5.86761600e+02 7.81860800e-03 9.93325900e-02
       -1 -1    0    0    0  501 -0.0000000000e+00 +0.0000000000e+00 +1.0389209192e+03 1.0389209192e+03 0.0000000000e+00 0.0000e+00 1.0000e+00
        1 -1    0    0  501    0 +0.0000000000e+00 -0.0000000000e+00 -8.2847795236e+01 8.2847795236e+01 0.0000000000e+00 0.0000e+00 -1.0000e+00
     -556  1    1    2    0    0 +4.2429273637e+01 -6.2322403559e+01 +8.6224569436e+02 8.8834225538e+02 2.0000000000e+02 0.0000e+00 1.0000e+00
      556  1    1    2    0    0 -4.2429273637e+01 +6.2322403559e+01 +9.3827429619e+01 2.3342645907e+02 2.0000000000e+02 0.0000e+00 -1.0000e+00
<mgrwt>
<rscale>  0 0.58676165E+03</rscale>
<asrwt>0</asrwt>
<pdfrwt beam="2">  1        1 0.12745815E-01 0.58676165E+03</pdfrwt>
<pdfrwt beam="1">  1       -1 0.15983398E+00 0.58676165E+03</pdfrwt>
<totfact> 0.14461593E+02</totfact>
</mgrwt>
</event>
<event>
 4      1 +1.5204000e-02 5.36823500e+02 7.81860800e-03 1.00459100e-01
       -1 -1    0    0    0  501 -0.0000000000e+00 +0.0000000000e+00 +1.7807177684e+02 1.7807177684e+02 0.0000000000e+00 0.0000e+00 1.0000e+00
        1 -1    0    0  501    0 +0.0000000000e+00 -0.0000000000e+00 -4.0458334532e+02 4.0458334532e+02 0.0000000000e+00 0.0000e+00 -1.0000e+00
     -556  1    1    2    0    0 +1.2044159816e+02 +1.0311415186e+02 -2.0345413678e+02 3.2639285019e+02 2.0000000000e+02 0.0000e+00 -1.0000e+00
      556  1    1    2    0    0 -1.2044159816e+02 -1.0311415186e+02 -2.3057431689e+01 2.5626227197e+02 2.0000000000e+02 0.0000e+00 1.0000e+00
<mgrwt>
<rscale>  0 0.53682353E+03</rscale>
<asrwt>0</asrwt>
<pdfrwt beam="2">  1        1 0.62243592E-01 0.53682353E+03</pdfrwt>
<pdfrwt beam="1">  1       -1 0.27395658E-01 0.53682353E+03</pdfrwt>
<totfact> 0.71177825E+02</totfact>
</mgrwt>
</event>
<event>
 4      1 +1.5204000e-02 5.24957800e+02 7.81860800e-03 1.00746200e-01
       -2 -1    0    0    0  501 -0.0000000000e+00 +0.0000000000e+00 +4.6614541295e+01 4.6614541295e+01 0.0000000000e+00 0.0000e+00 1.0000e+00
        2 -1    0    0  501    0 +0.0000000000e+00 -0.0000000000e+00 -1.4779757606e+03 1.4779757606e+03 0.0000000000e+00 0.0000e+00 -1.0000e+00
     -556  1    1    2    0    0 -6.1541000583e-02 -1.6121574621e+02 -8.7220249261e+02 9.0924568117e+02 2.0000000000e+02 0.0000e+00 -1.0000e+00
      556  1    1    2    0    0 +6.1541000583e-02 +1.6121574621e+02 -5.5915872665e+02 6.1534462069e+02 2.0000000000e+02 0.0000e+00 1.0000e+00
<mgrwt>
<rscale>  0 0.52495776E+03</rscale>
<asrwt>0</asrwt>
<pdfrwt beam="2">  1        2 0.22738091E+00 0.52495776E+03</pdfrwt>
<pdfrwt beam="1">  1       -2 0.71714670E-02 0.52495776E+03</pdfrwt>
<totfact> 0.15592660E+03</totfact>
</mgrwt>
</event>
<event>
 4      1 +1.5204000e-02 5.37775500e+02 7.81860800e-03 1.00436400e-01
       -1 -1    0    0    0  501 -0.0000000000e+00 +0.0000000000e+00 +2.9776220401e+02 2.9776220401e+02 0.0000000000e+00 0.0000e+00 1.0000e+00
        1 -1    0    0  501    0 +0.0000000000e+00 -0.0000000000e+00 -2.4281332866e+02 2.4281332866e+02 0.0000000000e+00 0.0000e+00 -1.0000e+00
     -556  1    1    2    0    0 -1.1843537983e+02 -7.5731809998e+00 -1.0819621061e+02 2.5649700243e+02 2.0000000000e+02 0.0000e+00 -1.0000e+00
      556  1    1    2    0    0 +1.1843537983e+02 +7.5731809998e+00 +1.6314508596e+02 2.8407853023e+02 2.0000000000e+02 0.0000e+00 1.0000e+00
<mgrwt>
<rscale>  0 0.53777554E+03</rscale>
<asrwt>0</asrwt>
<pdfrwt beam="2">  1        1 0.37355896E-01 0.53777554E+03</pdfrwt>
<pdfrwt beam="1">  1       -1 0.45809570E-01 0.53777554E+03</pdfrwt>
<totfact> 0.55274045E+02</totfact>
</mgrwt>
</event>
<event>
 4      1 +1.5204000e-02 6.06264500e+02 7.81860800e-03 9.89249400e-02
        1 -1    0    0  501    0 +0.0000000000e+00 +0.0000000000e+00 +1.5632338978e+02 1.5632338978e+02 0.0000000000e+00 0.0000e+00 -1.0000e+00
       -1 -1    0    0    0  501 -0.0000000000e+00 -0.0000000000e+00 -5.8781455345e+02 5.8781455345e+02 0.0000000000e+00 0.0000e+00 1.0000e+00
     -556  1    1    2    0    0 -3.8814639962e+01 -1.9258040490e+02 -3.5727333082e+02 4.5413436508e+02 2.0000000000e+02 0.0000e+00 -1.0000e+00
      556  1    1    2    0    0 +3.8814639962e+01 +1.9258040490e+02 -7.4217832847e+01 2.9000357815e+02 2.0000000000e+02 0.0000e+00 1.0000e+00
<mgrwt>
<rscale>  0 0.60626451E+03</rscale>
<asrwt>0</asrwt>
<pdfrwt beam="1">  1        1 0.24049752E-01 0.60626451E+03</pdfrwt>
<pdfrwt beam="2">  1       -1 0.90433009E-01 0.60626451E+03</pdfrwt>
<totfact> 0.24969160E+02</totfact>
</mgrwt>
</event>
<event>
 4      1 +1.5204000e-02 1.02941000e+03 7.81860800e-03 9.27686400e-02
       -1 -1    0    0    0  501 -0.0000000000e+00 +0.0000000000e+00 +2.8176114136e+02 2.8176114136e+02 0.0000000000e+00 0.0000e+00 1.0000e+00
        1 -1    0    0  501    0 +0.0000000000e+00 -0.0000000000e+00 -9.4023298184e+02 9.4023298184e+02 0.0000000000e+00 0.0000e+00 -1.0000e+00
     -556  1    1    2    0    0 -2.2395960222e+02 -4.1802723711e+02 -3.2442220134e+02 6.0840318795e+02 2.0000000000e+02 0.0000e+00 -1.0000e+00
      556  1    1    2    0    0 +2.2395960222e+02 +4.1802723711e+02 -3.3404963915e+02 6.1359093524e+02 2.0000000000e+02 0.0000e+00 1.0000e+00
<mgrwt>
<rscale>  0 0.10294098E+04</rscale>
<asrwt>0</asrwt>
<pdfrwt beam="2">  1        1 0.14465123E+00 0.10294098E+04</pdfrwt>
<pdfrwt beam="1">  1       -1 0.43347867E-01 0.10294098E+04</pdfrwt>
<totfact> 0.88635552E+01</totfact>
</mgrwt>
</event>
<event>
 4      1 +1.5204000e-02 5.86392300e+02 7.81860800e-03 9.93404700e-02
        1 -1    0    0  501    0 +0.0000000000e+00 +0.0000000000e+00 +1.8377369012e+03 1.8377369012e+03 0.0000000000e+00 0.0000e+00 -1.0000e+00
       -1 -1    0    0    0  501 -0.0000000000e+00 -0.0000000000e+00 -4.6777087960e+01 4.6777087960e+01 0.0000000000e+00 0.0000e+00 1.0000e+00
     -556  1    1    2    0    0 -7.2125250952e+01 -1.5047064371e+02 +4.6287008998e+02 5.3112351354e+02 2.0000000000e+02 0.0000e+00 -1.0000e+00
      556  1    1    2    0    0 +7.2125250952e+01 +1.5047064371e+02 +1.3280897232e+03 1.3533904756e+03 2.0000000000e+02 0.0000e+00 1.0000e+00
<mgrwt>
<rscale>  0 0.58639229E+03</rscale>
<asrwt>0</asrwt>
<pdfrwt beam="1">  1        1 0.28272870E+00 0.58639229E+03</pdfrwt>
<pdfrwt beam="2">  1       -1 0.71964765E-02 0.58639229E+03</pdfrwt>
<totfact> 0.42135080E+02</totfact>
</mgrwt>
</event>
<event>
 4      1 +1.5204000e-02 4.63365600e+02 7.81860800e-03 1.02381000e-01
       -2 -1    0    0    0  501 -0.0000000000e+00 +0.0000000000e+00 +1.0005792582e+02 1.0005792582e+02 0.0000000000e+00 0.0000e+00 -1.0000e+00
        2 -1    0    0  501    0 +0.0000000000e+00 -0.0000000000e+00 -5.3645843553e+02 5.3645843553e+02 0.0000000000e+00 0.0000e+00 1.0000e+00
     -556  1    1    2    0    0 -6.3632046161e+01 -8.6312785346e+00 -3.5246573282e+02 4.1031162435e+02 2.0000000000e+02 0.0000e+00 1.0000e+00
      556  1    1    2    0    0 +6.3632046161e+01 +8.6312785346e+00 -8.3934776896e+01 2.2620473700e+02 2.0000000000e+02 0.0000e+00 -1.0000e+00
<mgrwt>
<rscale>  0 0.46336559E+03</rscale>
<asrwt>0</asrwt>
<pdfrwt beam="2">  1        2 0.82532067E-01 0.46336559E+03</pdfrwt>
<pdfrwt beam="1">  1       -2 0.15393527E-01 0.46336559E+03</pdfrwt>
<totfact> 0.18942088E+03</totfact>
</mgrwt>
</event>
<event>
 4      1 +1.5204000e-02 5.26907000e+02 7.81860800e-03 1.00698500e-01
        1 -1    0    0  501    0 +0.0000000000e+00 +0.0000000000e+00 +8.4414053782e+02 8.4414053782e+02 0.0000000000e+00 0.0000e+00 -1.0000e+00
       -1 -1    0    0    0  501 -0.0000000000e+00 -0.0000000000e+00 -8.2222976198e+01 8.2222976198e+01 0.0000000000e+00 0.0000e+00 1.0000e+00
     -556  1    1    2    0    0 -9.9890806024e+01 -1.2664087501e+02 +2.7856965908e+02 3.7896852021e+02 2.0000000000e+02 0.0000e+00 1.0000e+00
      556  1    1    2    0    0 +9.9890806024e+01 +1.2664087501e+02 +4.8334790254e+02 5.4739499380e+02 2.0000000000e+02 0.0000e+00 -1.0000e+00
<mgrwt>
<rscale>  0 0.52690700E+03</rscale>
<asrwt>0</asrwt>
<pdfrwt beam="1">  1        1 0.12986777E+00 0.52690700E+03</pdfrwt>
<pdfrwt beam="2">  1       -1 0.12649689E-01 0.52690700E+03</pdfrwt>
<totfact> 0.88789505E+02</totfact>
</mgrwt>
</event>
<event>
 4      1 +1.5204000e-02 5.46329800e+02 7.81860800e-03 1.00234700e-01
       -2 -1    0    0    0  501 -0.0000000000e+00 +0.0000000000e+00 +1.1710207359e+02 1.1710207359e+02 0.0000000000e+00 0.0000e+00 -1.0000e+00
        2 -1    0    0  501    0 +0.0000000000e+00 -0.0000000000e+00 -6.3721385222e+02 6.3721385222e+02 0.0000000000e+00 0.0000e+00 1.0000e+00
     -556  1    1    2    0    0 -1.1623206609e+02 -1.1833251494e+02 -3.7644943456e+02 4.5741300163e+02 2.0000000000e+02 0.0000e+00 -1.0000e+00
      556  1    1    2    0    0 +1.1623206609e+02 +1.1833251494e+02 -1.4366234407e+02 2.9690292418e+02 2.0000000000e+02 0.0000e+00 1.0000e+00
<mgrwt>
<rscale>  0 0.54632980E+03</rscale>
<asrwt>0</asrwt>
<pdfrwt beam="2">  1        2 0.98032900E-01 0.54632980E+03</pdfrwt>
<pdfrwt beam="1">  1       -2 0.18015704E-01 0.54632980E+03</pdfrwt>
<totfact> 0.11829610E+03</totfact>
</mgrwt>
</event>
<event>
 4      1 +1.5204000e-02 1.95434800e+03 7.81860800e-03 8.62826700e-02
        1 -1    0    0  501    0 +0.0000000000e+00 +0.0000000000e+00 +5.9838060716e+02 5.9838060716e+02 0.0000000000e+00 0.0000e+00 -1.0000e+00
       -1 -1    0    0    0  501 -0.0000000000e+00 -0.0000000000e+00 -1.5957548564e+03 1.5957548564e+03 0.0000000000e+00 0.0000e+00 1.0000e+00
     -556  1    1    2    0    0 -4.3700273006e+02 -5.8116953282e+01 -1.4516688153e+03 1.5302585780e+03 2.0000000000e+02 0.0000e+00 1.0000e+00
      556  1    1    2    0    0 +4.3700273006e+02 +5.8116953282e+01 +4.5429456608e+02 6.6387688551e+02 2.0000000000e+02 0.0000e+00 -1.0000e+00
<mgrwt>
<rscale>  0 0.19543477E+04</rscale>
<asrwt>0</asrwt>
<pdfrwt beam="1">  1        1 0.92058554E-01 0.19543477E+04</pdfrwt>
<pdfrwt beam="2">  1       -1 0.24550075E+00 0.19543477E+04</pdfrwt>
<totfact> 0.23889432E+00</totfact>
</mgrwt>
</event>
<event>
 4      1 +1.5204000e-02 5.82516300e+02 7.81860800e-03 9.94235800e-02
       -1 -1    0    0    0  501 -0.0000000000e+00 +0.0000000000e+00 +2.9232302257e+02 2.9232302257e+02 0.0000000000e+00 0.0000e+00 1.0000e+00
        1 -1    0    0  501    0 +0.0000000000e+00 -0.0000000000e+00 -2.9019718289e+02 2.9019718289e+02 0.0000000000e+00 0.0000e+00 -1.0000e+00
     -556  1    1    2    0    0 -1.0505610067e+02 +1.4378957997e+02 +1.1560227888e+02 2.9167810079e+02 2.0000000000e+02 0.0000e+00 1.0000e+00
      556  1    1    2    0    0 +1.0505610067e+02 -1.4378957997e+02 -1.1347643920e+02 2.9084210467e+02 2.0000000000e+02 0.0000e+00 -1.0000e+00
<mgrwt>
<rscale>  0 0.58251633E+03</rscale>
<asrwt>0</asrwt>
<pdfrwt beam="2">  1        1 0.44645721E-01 0.58251633E+03</pdfrwt>
<pdfrwt beam="1">  1       -1 0.44972772E-01 0.58251633E+03</pdfrwt>
<totfact> 0.45432242E+02</totfact>
</mgrwt>
</event>
<event>
 4      1 +1.5204000e-02 9.15056400e+02 7.81860800e-03 9.40695300e-02
       -2 -1    0    0    0  501 -0.0000000000e+00 +0.0000000000e+00 +1.4970077795e+02 1.4970077795e+02 0.0000000000e+00 0.0000e+00 1.0000e+00
        2 -1    0    0  501    0 +0.0000000000e+00 -0.0000000000e+00 -1.3983363768e+03 1.3983363768e+03 0.0000000000e+00 0.0000e+00 -1.0000e+00
     -556  1    1    2    0    0 +5.7165523173e+01 -4.0368793361e+02 -7.1851289499e+02 8.4999566178e+02 2.0000000000e+02 0.0000e+00 -1.0000e+00
      556  1    1    2    0    0 -5.7165523173e+01 +4.0368793361e+02 -5.3012270389e+02 6.9804149300e+02 2.0000000000e+02 0.0000e+00 1.0000e+00
<mgrwt>
<rscale>  0 0.91505638E+03</rscale>
<asrwt>0</asrwt>
<pdfrwt beam="2">  1        2 0.21512867E+00 0.91505638E+03</pdfrwt>
<pdfrwt beam="1">  1       -2 0.23030889E-01 0.91505638E+03</pdfrwt>
<totfact> 0.24154556E+02</totfact>
</mgrwt>
</event>
<event>
 4      1 +1.5204000e-02 8.89313600e+02 7.81860800e-03 9.43903900e-02
        2 -1    0    0  501    0 +0.0000000000e+00 +0.0000000000e+00 +1.3889155520e+03 1.3889155520e+03 0.0000000000e+00 0.0000e+00 -1.0000e+00
       -2 -1    0    0    0  501 -0.0000000000e+00 -0.0000000000e+00 -1.4235543117e+02 1.4235543117e+02 0.0000000000e+00 0.0000e+00 1.0000e+00
     -556  1    1    2    0    0 -7.4755729679e+01 -2.5335341623e+02 +1.1265926893e+02 3.4995497355e+02 2.0000000000e+02 0.0000e+00 1.0000e+00
      556  1    1    2    0    0 +7.4755729679e+01 +2.5335341623e+02 +1.1339008519e+03 1.1813160097e+03 2.0000000000e+02 0.0000e+00 -1.0000e+00
<mgrwt>
<rscale>  0 0.88931361E+03</rscale>
<asrwt>0</asrwt>
<pdfrwt beam="1">  1        2 0.21367931E+00 0.88931361E+03</pdfrwt>
<pdfrwt beam="2">  1       -2 0.21900836E-01 0.88931361E+03</pdfrwt>
<totfact> 0.26787919E+02</totfact>
</mgrwt>
</event>
<event>
 4      1 +1.5204000e-02 6.21762300e+02 7.81860800e-03 9.86125700e-02
       -1 -1    0    0    0  501 -0.0000000000e+00 +0.0000000000e+00 +1.9636071086e+02 1.9636071086e+02 0.0000000000e+00 0.0000e+00 1.0000e+00
        1 -1    0    0  501    0 +0.0000000000e+00 -0.0000000000e+00 -4.9219153436e+02 4.9219153436e+02 0.0000000000e+00 0.0000e+00 -1.0000e+00
     -556  1    1    2    0    0 +3.0189419152e+01 +5.6880700857e+01 -4.0165795052e+02 4.5329452277e+02 2.0000000000e+02 0.0000e+00 -1.0000e+00
      556  1    1    2    0    0 -3.0189419152e+01 -5.6880700857e+01 +1.0582712702e+02 2.3525772245e+02 2.0000000000e+02 0.0000e+00 1.0000e+00
<mgrwt>
<rscale>  0 0.62176227E+03</rscale>
<asrwt>0</asrwt>
<pdfrwt beam="2">  1        1 0.75721774E-01 0.62176227E+03</pdfrwt>
<pdfrwt beam="1">  1       -1 0.30209340E-01 0.62176227E+03</pdfrwt>
<totfact> 0.46157600E+02</totfact>
</mgrwt>
</event>
<event>
 4      1 +1.5204000e-02 8.79222400e+02 7.81860800e-03 9.45193400e-02
        2 -1    0    0  501    0 +0.0000000000e+00 +0.0000000000e+00 +1.8899703380e+03 1.8899703380e+03 0.0000000000e+00 0.0000e+00 1.0000e+00
       -2 -1    0    0    0  501 -0.0000000000e+00 -0.0000000000e+00 -1.0225451518e+02 1.0225451518e+02 0.0000000000e+00 0.0000e+00 -1.0000e+00
     -556  1    1    2    0    0 +3.7235791820e+02 -6.1229151549e+01 +1.1299742185e+03 1.2079905474e+03 2.0000000000e+02 0.0000e+00 1.0000e+00
      556  1    1    2    0    0 -3.7235791820e+02 +6.1229151549e+01 +6.5774160433e+02 7.8423430575e+02 2.0000000000e+02 0.0000e+00 -1.0000e+00
<mgrwt>
<rscale>  0 0.87922239E+03</rscale>
<asrwt>0</asrwt>
<pdfrwt beam="1">  1        2 0.29076464E+00 0.87922239E+03</pdfrwt>
<pdfrwt beam="2">  1       -2 0.15731465E-01 0.87922239E+03</pdfrwt>
<totfact> 0.25134401E+02</totfact>
</mgrwt>
</event>
<event>
 4      1 +1.5204000e-02 5.46764200e+02 7.81860800e-03 1.00224600e-01
       -2 -1    0    0    0  501 -0.0000000000e+00 +0.0000000000e+00 +4.1610495307e+01 4.1610495307e+01 0.0000000000e+00 0.0000e+00 -1.0000e+00
        2 -1    0    0  501    0 +0.0000000000e+00 -0.0000000000e+00 -1.7961279774e+03 1.7961279774e+03 0.0000000000e+00 0.0000e+00 1.0000e+00
     -556  1    1    2    0    0 -1.4774753792e+02 -3.4969803013e+01 -1.2405945975e+03 1.2657516255e+03 2.0000000000e+02 0.0000e+00 1.0000e+00
      556  1    1    2    0    0 +1.4774753792e+02 +3.4969803013e+01 -5.1392288462e+02 5.7198684724e+02 2.0000000000e+02 0.0000e+00 -1.0000e+00
<mgrwt>
<rscale>  0 0.54676421E+03</rscale>
<asrwt>0</asrwt>
<pdfrwt beam="2">  1        2 0.27632741E+00 0.54676421E+03</pdfrwt>
<pdfrwt beam="1">  1       -2 0.64016141E-02 0.54676421E+03</pdfrwt>
<totfact> 0.12505557E+03</totfact>
</mgrwt>
</event>
<event>
 4      1 +1.5204000e-02 7.61970100e+02 7.81860800e-03 9.61675600e-02
       -1 -1    0    0    0  501 -0.0000000000e+00 +0.0000000000e+00 +9.1242975974e+02 9.1242975974e+02 0.0000000000e+00 0.0000e+00 1.0000e+00
        1 -1    0    0  501    0 +0.0000000000e+00 -0.0000000000e+00 -1.5908028950e+02 1.5908028950e+02 0.0000000000e+00 0.0000e+00 -1.0000e+00
     -556  1    1    2    0    0 -5.0080753668e+00 +3.1625057462e+02 +4.7719933347e+02 6.0643112604e+02 2.0000000000e+02 0.0000e+00 1.0000e+00
      556  1    1    2    0    0 +5.0080753668e+00 -3.1625057462e+02 +2.7615013677e+02 4.6507892320e+02 2.0000000000e+02 0.0000e+00 -1.0000e+00
<mgrwt>
<rscale>  0 0.76197005E+03</rscale>
<asrwt>0</asrwt>
<pdfrwt beam="2">  1        1 0.24473891E-01 0.76197005E+03</pdfrwt>
<pdfrwt beam="1">  1       -1 0.14037381E+00 0.76197005E+03</pdfrwt>
<totfact> 0.84921108E+01</totfact>
</mgrwt>
</event>
<event>
 4      1 +1.5204000e-02 4.49806600e+02 7.81860800e-03 1.02778000e-01
       -1 -1    0    0    0  501 -0.0000000000e+00 +0.0000000000e+00 +4.0189848273e+01 4.0189848273e+01 0.0000000000e+00 0.0000e+00 1.0000e+00
        1 -1    0    0  501    0 +0.0000000000e+00 -0.0000000000e+00 -1.2585640365e+03 1.2585640365e+03 0.0000000000e+00 0.0000e+00 -1.0000e+00
     -556  1    1    2    0    0 -1.6674956693e+01 -3.2731231871e+01 -3.3175831809e+02 3.8911819457e+02 2.0000000000e+02 0.0000e+00 1.0000e+00
      556  1    1    2    0    0 +1.6674956693e+01 +3.2731231871e+01 -8.8661587014e+02 9.0963569021e+02 2.0000000000e+02 0.0000e+00 -1.0000e+00
<mgrwt>
<rscale>  0 0.44980661E+03</rscale>
<asrwt>0</asrwt>
<pdfrwt beam="2">  1        1 0.19362522E+00 0.44980661E+03</pdfrwt>
<pdfrwt beam="1">  1       -1 0.61830541E-02 0.44980661E+03</pdfrwt>
<totfact> 0.13239807E+03</totfact>
</mgrwt>
</event>
<event>
 4      1 +1.5204000e-02 5.76223200e+02 7.81860800e-03 9.95600100e-02
       -2 -1    0    0    0  501 -0.0000000000e+00 +0.0000000000e+00 +4.5300820545e+01 4.5300820545e+01 0.0000000000e+00 0.0000e+00 -1.0000e+00
        2 -1    0    0  501    0 +0.0000000000e+00 -0.0000000000e+00 -1.8323796108e+03 1.8323796108e+03 0.0000000000e+00 0.0000e+00 1.0000e+00
     -556  1    1    2    0    0 -3.4176830043e+01 -1.9786943059e+02 -7.2459642858e+02 7.7804906759e+02 2.0000000000e+02 0.0000e+00 1.0000e+00
      556  1    1    2    0    0 +3.4176830043e+01 +1.9786943059e+02 -1.0624823617e+03 1.0996313637e+03 2.0000000000e+02 0.0000e+00 -1.0000e+00
<mgrwt>
<rscale>  0 0.57622322E+03</rscale>
<asrwt>0</asrwt>
<pdfrwt beam="2">  1        2 0.28190452E+00 0.57622322E+03</pdfrwt>
<pdfrwt beam="1">  1       -2 0.69693578E-02 0.57622322E+03</pdfrwt>
<totfact> 0.10440746E+03</totfact>
</mgrwt>
</event>
<event>
 4      1 +1.5204000e-02 4.92907800e+02 7.81860800e-03 1.01564700e-01
       -1 -1    0    0    0  501 -0.0000000000e+00 +0.0000000000e+00 +1.6344790145e+01 1.6344790145e+01 0.0000000000e+00 0.0000e+00 1.0000e+00
        1 -1    0    0  501    0 +0.0000000000e+00 -0.0000000000e+00 -3.7161401141e+03 3.7161401141e+03 0.0000000000e+00 0.0000e+00 -1.0000e+00
     -556  1    1    2    0    0 +2.8473926484e+01 +1.0483634476e+02 -1.1339931235e+03 1.1566078972e+03 2.0000000000e+02 0.0000e+00 1.0000e+00
      556  1    1    2    0    0 -2.8473926484e+01 -1.0483634476e+02 -2.5658022004e+03 2.5758770070e+03 2.0000000000e+02 0.0000e+00 -1.0000e+00
<mgrwt>
<rscale>  0 0.49290782E+03</rscale>
<asrwt>0</asrwt>
<pdfrwt beam="2">  1        1 0.57171409E+00 0.49290782E+03</pdfrwt>
<pdfrwt beam="1">  1       -1 0.25145821E-02 0.49290782E+03</pdfrwt>
<totfact> 0.99288119E+01</totfact>
</mgrwt>
</event>
<event>
 4      1 +1.5204000e-02 1.55374400e+03 7.81860800e-03 8.84948000e-02
       -1 -1    0    0    0  501 -0.0000000000e+00 +0.0000000000e+00 +2.2944106641e+02 2.2944106641e+02 0.0000000000e+00 0.0000e+00 1.0000e+00
        1 -1    0    0  501    0 +0.0000000000e+00 -0.0000000000e+00 -2.6304374340e+03 2.6304374340e+03 0.0000000000e+00 0.0000e+00 -1.0000e+00
     -556  1    1    2    0    0 +1.7575221999e+02 +1.7529568917e+02 +1.0351572209e+02 3.3516104516e+02 2.0000000000e+02 0.0000e+00 1.0000e+00
      556  1    1    2    0    0 -1.7575221999e+02 -1.7529568917e+02 -2.5045120897e+03 2.5247174552e+03 2.0000000000e+02 0.0000e+00 -1.0000e+00
<mgrwt>
<rscale>  0 0.15537443E+04</rscale>
<asrwt>0</asrwt>
<pdfrwt beam="2">  1        1 0.40468270E+00 0.15537443E+04</pdfrwt>
<pdfrwt beam="1">  1       -1 0.35298624E-01 0.15537443E+04</pdfrwt>
<totfact> 0.81100590E+00</totfact>
</mgrwt>
</event>
<event>
 4      1 +1.5204000e-02 6.50531200e+02 7.81860800e-03 9.80578300e-02
        1 -1    0    0  501    0 +0.0000000000e+00 +0.0000000000e+00 +4.3281935645e+02 4.3281935645e+02 0.0000000000e+00 0.0000e+00 -1.0000e+00
       -1 -1    0    0    0  501 -0.0000000000e+00 -0.0000000000e+00 -2.4443851757e+02 2.4443851757e+02 0.0000000000e+00 0.0000e+00 1.0000e+00
     -556  1    1    2    0    0 -1.4713239100e+02 -1.6906095011e+02 +2.2408911294e+02 3.7476055805e+02 2.0000000000e+02 0.0000e+00 -1.0000e+00
      556  1    1    2    0    0 +1.4713239100e+02 +1.6906095011e+02 -3.5708274060e+01 3.0249731597e+02 2.0000000000e+02 0.0000e+00 1.0000e+00
<mgrwt>
<rscale>  0 0.65053123E+03</rscale>
<asrwt>0</asrwt>
<pdfrwt beam="1">  1        1 0.66587593E-01 0.65053123E+03</pdfrwt>
<pdfrwt beam="2">  1       -1 0.37605926E-01 0.65053123E+03</pdfrwt>
<totfact> 0.37246716E+02</totfact>
</mgrwt>
</event>
<event>
 4      1 +1.5204000e-02 6.60575700e+02 7.81860800e-03 9.78713400e-02
       -2 -1    0    0    0  501 -0.0000000000e+00 +0.0000000000e+00 +3.1408193883e+02 3.1408193883e+02 0.0000000000e+00 0.0000e+00 1.0000e+00
        2 -1    0    0  501    0 +0.0000000000e+00 -0.0000000000e+00 -3.4732998495e+02 3.4732998495e+02 0.0000000000e+00 0.0000e+00 -1.0000e+00
     -556  1    1    2    0    0 -2.5819014786e+02 +6.4549662940e+00 +3.2287132686e+01 3.2824728175e+02 2.0000000000e+02 0.0000e+00 1.0000e+00
      556  1    1    2    0    0 +2.5819014786e+02 -6.4549662940e+00 -6.5535178804e+01 3.3316464203e+02 2.0000000000e+02 0.0000e+00 -1.0000e+00
<mgrwt>
<rscale>  0 0.66057573E+03</rscale>
<asrwt>0</asrwt>
<pdfrwt beam="2">  1        2 0.53435382E-01 0.66057573E+03</pdfrwt>
<pdfrwt beam="1">  1       -2 0.48320298E-01 0.66057573E+03</pdfrwt>
<totfact> 0.38162575E+02</totfact>
</mgrwt>
</event>
<event>
 4      1 +1.5204000e-02 5.39511000e+02 7.81860800e-03 1.00395100e-01
       -1 -1    0    0    0  501 -0.0000000000e+00 +0.0000000000e+00 +2.3380744022e+02 2.3380744022e+02 0.0000000000e+00 0.0000e+00 1.0000e+00
        1 -1    0    0  501    0 +0.0000000000e+00 -0.0000000000e+00 -3.1123058249e+02 3.1123058249e+02 0.0000000000e+00 0.0000e+00 -1.0000e+00
     -556  1    1    2    0    0 +8.8010145313e+01 +5.2564647352e+01 +1.1201203092e+02 2.5110858787e+02 2.0000000000e+02 0.0000e+00 1.0000e+00
      556  1    1    2    0    0 -8.8010145313e+01 -5.2564647352e+01 -1.8943517319e+02 2.9392943485e+02 2.0000000000e+02 0.0000e+00 -1.0000e+00
<mgrwt>
<rscale>  0 0.53951099E+03</rscale>
<asrwt>0</asrwt>
<pdfrwt beam="2">  1        1 0.47881628E-01 0.53951099E+03</pdfrwt>
<pdfrwt beam="1">  1       -1 0.35970376E-01 0.53951099E+03</pdfrwt>
<totfact> 0.62274689E+02</totfact>
</mgrwt>
</event>
<event>
 4      1 +1.5204000e-02 6.45056900e+02 7.81860800e-03 9.81609900e-02
        2 -1    0    0  501    0 +0.0000000000e+00 +0.0000000000e+00 +7.2020544128e+01 7.2020544128e+01 0.0000000000e+00 0.0000e+00 -1.0000e+00
       -2 -1    0    0    0  501 -0.0000000000e+00 -0.0000000000e+00 -1.4443739535e+03 1.4443739535e+03 0.0000000000e+00 0.0000e+00 1.0000e+00
     -556  1    1    2    0    0 -6.3233139876e+01 -8.3408476265e+01 -1.4463061092e+02 2.6809218099e+02 2.0000000000e+02 0.0000e+00 -1.0000e+00
      556  1    1    2    0    0 +6.3233139876e+01 +8.3408476265e+01 -1.2277227984e+03 1.2483023166e+03 2.0000000000e+02 0.0000e+00 1.0000e+00
<mgrwt>
<rscale>  0 0.64505689E+03</rscale>
<asrwt>0</asrwt>
<pdfrwt beam="1">  1        2 0.11080084E-01 0.64505689E+03</pdfrwt>
<pdfrwt beam="2">  1       -2 0.22221138E+00 0.64505689E+03</pdfrwt>
<totfact> 0.57451387E+01</totfact>
</mgrwt>
</event>
<event>
 4      1 +1.5204000e-02 5.57273300e+02 7.81860800e-03 9.99824300e-02
        1 -1    0    0  501    0 +0.0000000000e+00 +0.0000000000e+00 +2.4869417977e+03 2.4869417977e+03 0.0000000000e+00 0.0000e+00 -1.0000e+00
       -1 -1    0    0    0  501 -0.0000000000e+00 -0.0000000000e+00 -3.1218411810e+01 3.1218411810e+01 0.0000000000e+00 0.0000e+00 1.0000e+00
     -556  1    1    2    0    0 +7.7858104868e+01 +1.3727991113e+02 +1.7377106566e+03 1.7562875575e+03 2.0000000000e+02 0.0000e+00 -1.0000e+00
      556  1    1    2    0    0 -7.7858104868e+01 -1.3727991113e+02 +7.1801272931e+02 7.6187265205e+02 2.0000000000e+02 0.0000e+00 1.0000e+00
<mgrwt>
<rscale>  0 0.55727327E+03</rscale>
<asrwt>0</asrwt>
<pdfrwt beam="1">  1        1 0.38260627E+00 0.55727327E+03</pdfrwt>
<pdfrwt beam="2">  1       -1 0.48028345E-02 0.55727327E+03</pdfrwt>
<totfact> 0.29002712E+02</totfact>
</mgrwt>
</event>
<event>
 4      1 +1.5204000e-02 5.34749800e+02 7.81860800e-03 1.00508700e-01
       -1 -1    0    0    0  501 -0.0000000000e+00 +0.0000000000e+00 +1.2119935195e+02 1.2119935195e+02 0.0000000000e+00 0.0000e+00 1.0000e+00
        1 -1    0    0  501    0 +0.0000000000e+00 -0.0000000000e+00 -5.8984913717e+02 5.8984913717e+02 0.0000000000e+00 0.0000e+00 -1.0000e+00
     -556  1    1    2    0    0 +1.5441143410e+01 -1.7190210141e+02 -2.8915840748e+02 3.9166483885e+02 2.0000000000e+02 0.0000e+00 1.0000e+00
      556  1    1    2    0    0 -1.5441143410e+01 +1.7190210141e+02 -1.7949137774e+02 3.1938365027e+02 2.0000000000e+02 0.0000e+00 -1.0000e+00
<mgrwt>
<rscale>  0 0.53474979E+03</rscale>
<asrwt>0</asrwt>
<pdfrwt beam="2">  1        1 0.90746023E-01 0.53474979E+03</pdfrwt>
<pdfrwt beam="1">  1       -1 0.18646054E-01 0.53474979E+03</pdfrwt>
<totfact> 0.81274025E+02</totfact>
</mgrwt>
</event>
<event>
 4      1 +1.5204000e-02 5.52260500e+02 7.81860800e-03 1.00097200e-01
        2 -1    0    0  501    0 +0.0000000000e+00 +0.0000000000e+00 +3.8612563703e+02 3.8612563703e+02 0.0000000000e+00 0.0000e+00 -1.0000e+00
       -2 -1    0    0    0  501 -0.0000000000e+00 -0.0000000000e+00 -1.9746920697e+02 1.9746920697e+02 0.0000000000e+00 0.0000e+00 1.0000e+00
     -556  1    1    2    0    0 +8.3998184594e-01 +1.3582356215e+01 -1.0634840849e+02 2.2692547226e+02 2.0000000000e+02 0.0000e+00 1.0000e+00
      556  1    1    2    0    0 -8.3998184594e-01 -1.3582356215e+01 +2.9500483855e+02 3.5666937174e+02 2.0000000000e+02 0.0000e+00 -1.0000e+00
<mgrwt>
<rscale>  0 0.55226053E+03</rscale>
<asrwt>0</asrwt>
<pdfrwt beam="1">  1        2 0.59403944E-01 0.55226053E+03</pdfrwt>
<pdfrwt beam="2">  1       -2 0.30379878E-01 0.55226053E+03</pdfrwt>
<totfact> 0.83201518E+02</totfact>
</mgrwt>
</event>
<event>
 4      1 +1.5204000e-02 6.71658000e+02 7.81860800e-03 9.76696700e-02
       -1 -1    0    0    0  501 -0.0000000000e+00 +0.0000000000e+00 +2.2187193635e+02 2.2187193635e+02 0.0000000000e+00 0.0000e+00 1.0000e+00
        1 -1    0    0  501    0 +0.0000000000e+00 -0.0000000000e+00 -5.0831625857e+02 5.0831625857e+02 0.0000000000e+00 0.0000e+00 -1.0000e+00
     -556  1    1    2    0    0 -1.7890559671e+02 +1.3017604945e+02 +2.4593039584e+01 2.9926214926e+02 2.0000000000e+02 0.0000e+00 1.0000e+00
      556  1    1    2    0    0 +1.7890559671e+02 -1.3017604945e+02 -3.1103736181e+02 4.3092604566e+02 2.0000000000e+02 0.0000e+00 -1.0000e+00
<mgrwt>
<rscale>  0 0.67165799E+03</rscale>
<asrwt>0</asrwt>
<pdfrwt beam="2">  1        1 0.78202501E-01 0.67165799E+03</pdfrwt>
<pdfrwt beam="1">  1       -1 0.34134144E-01 0.67165799E+03</pdfrwt>
<totfact> 0.35580586E+02</totfact>
</mgrwt>
</event>
<event>
 4      1 +1.5204000e-02 5.39110500e+02 7.81860800e-03 1.00404600e-01
       -1 -1    0    0    0  501 -0.0000000000e+00 +0.0000000000e+00 +4.8349145946e+01 4.8349145946e+01 0.0000000000e+00 0.0000e+00 1.0000e+00
        1 -1    0    0  501    0 +0.0000000000e+00 -0.0000000000e+00 -1.5028193013e+03 1.5028193013e+03 0.0000000000e+00 0.0000e+00 -1.0000e+00
     -556  1    1    2    0    0 +1.2074520192e+02 -9.3154688692e+01 -4.4823105111e+02 5.1397302944e+02 2.0000000000e+02 0.0000e+00 1.0000e+00
      556  1    1    2    0    0 -1.2074520192e+02 +9.3154688692e+01 -1.0062391042e+03 1.0371954178e+03 2.0000000000e+02 0.0000e+00 -1.0000e+00
<mgrwt>
<rscale>  0 0.53911049E+03</rscale>
<asrwt>0</asrwt>
<pdfrwt beam="2">  1        1 0.23120299E+00 0.53911049E+03</pdfrwt>
<pdfrwt beam="1">  1       -1 0.74383294E-02 0.53911049E+03</pdfrwt>
<totfact> 0.67315102E+02</totfact>
</mgrwt>
</event>
<event>
 4      1 +1.5204000e-02 5.44334100e+02 7.81860800e-03 1.00281400e-01
       -1 -1    0    0    0  501 -0.0000000000e+00 +0.0000000000e+00 +6.5009704681e+01 6.5009704681e+01 0.0000000000e+00 0.0000e+00 1.0000e+00
        1 -1    0    0  501    0 +0.0000000000e+00 -0.0000000000e+00 -1.1394435701e+03 1.1394435701e+03 0.0000000000e+00 0.0000e+00 -1.0000e+00
     -556  1    1    2    0    0 +7.4478310988e+01 +7.6708780274e+01 -8.7018111566e+02 8.9924770216e+02 2.0000000000e+02 0.0000e+00 -1.0000e+00
      556  1    1    2    0    0 -7.4478310988e+01 -7.6708780274e+01 -2.0425274976e+02 3.0520557263e+02 2.0000000000e+02 0.0000e+00 1.0000e+00
<mgrwt>
<rscale>  0 0.54433405E+03</rscale>
<asrwt>0</asrwt>
<pdfrwt beam="2">  1        1 0.17529901E+00 0.54433405E+03</pdfrwt>
<pdfrwt beam="1">  1       -1 0.10001493E-01 0.54433405E+03</pdfrwt>
<totfact> 0.76084543E+02</totfact>
</mgrwt>
</event>
<event>
 4      1 +1.5204000e-02 4.30899100e+02 7.81860800e-03 1.03357600e-01
       -1 -1    0    0    0  501 -0.0000000000e+00 +0.0000000000e+00 +2.0630594504e+01 2.0630594504e+01 0.0000000000e+00 0.0000e+00 1.0000e+00
        1 -1    0    0  501    0 +0.0000000000e+00 -0.0000000000e+00 -2.2499840042e+03 2.2499840042e+03 0.0000000000e+00 0.0000e+00 -1.0000e+00
     -556  1    1    2    0    0 +5.2297330353e+01 +2.1889913891e+01 -8.1638830654e+02 8.4243934271e+02 2.0000000000e+02 0.0000e+00 1.0000e+00
      556  1    1    2    0    0 -5.2297330353e+01 -2.1889913891e+01 -1.4129651031e+03 1.4281752560e+03 2.0000000000e+02 0.0000e+00 -1.0000e+00
<mgrwt>
<rscale>  0 0.43089910E+03</rscale>
<asrwt>0</asrwt>
<pdfrwt beam="2">  1        1 0.34615121E+00 0.43089910E+03</pdfrwt>
<pdfrwt beam="1">  1       -1 0.31739392E-02 0.43089910E+03</pdfrwt>
<totfact> 0.79127779E+02</totfact>
</mgrwt>
</event>
<event>
 4      1 +1.5204000e-02 4.87530900e+02 7.81860800e-03 1.01708600e-01
        2 -1    0    0  501    0 +0.0000000000e+00 +0.0000000000e+00 +1.5063476276e+02 1.5063476276e+02 0.0000000000e+00 0.0000e+00 1.0000e+00
       -2 -1    0    0    0  501 -0.0000000000e+00 -0.0000000000e+00 -3.9447469770e+02 3.9447469770e+02 0.0000000000e+00 0.0000e+00 -1.0000e+00
     -556  1    1    2    0    0 +5.7695625875e+01 +2.3843712673e+01 +1.7391697260e+01 2.1023743485e+02 2.0000000000e+02 0.0000e+00 1.0000e+00
      556  1    1    2    0    0 -5.7695625875e+01 -2.3843712673e+01 -2.6123163219e+02 3.3487202561e+02 2.0000000000e+02 0.0000e+00 -1.0000e+00
<mgrwt>
<rscale>  0 0.48753093E+03</rscale>
<asrwt>0</asrwt>
<pdfrwt beam="1">  1        2 0.23174579E-01 0.48753093E+03</pdfrwt>
<pdfrwt beam="2">  1       -2 0.60688415E-01 0.48753093E+03</pdfrwt>
<totfact> 0.60888220E+02</totfact>
</mgrwt>
</event>
<event>
 4      1 +1.5204000e-02 5.69627400e+02 7.81860800e-03 9.97050400e-02
        1 -1    0    0  501    0 +0.0000000000e+00 +0.0000000000e+00 +3.4922331846e+02 3.4922331846e+02 0.0000000000e+00 0.0000e+00 -1.0000e+00
       -1 -1    0    0    0  501 -0.0000000000e+00 -0.0000000000e+00 -2.3228354591e+02 2.3228354591e+02 0.0000000000e+00 0.0000e+00 1.0000e+00
     -556  1    1    2    0    0 -1.5795049063e+01 +1.0554395190e+02 +2.3448913334e+02 3.2615052201e+02 2.0000000000e+02 0.0000e+00 -1.0000e+00
      556  1    1    2    0    0 +1.5795049063e+01 -1.0554395190e+02 -1.1754936079e+02 2.5535634235e+02 2.0000000000e+02 0.0000e+00 1.0000e+00
<mgrwt>
<rscale>  0 0.56962735E+03</rscale>
<asrwt>0</asrwt>
<pdfrwt beam="1">  1        1 0.53726665E-01 0.56962735E+03</pdfrwt>
<pdfrwt beam="2">  1       -1 0.35735930E-01 0.56962735E+03</pdfrwt>
<totfact> 0.54243062E+02</totfact>
</mgrwt>
</event>
<event>
 4      1 +1.5204000e-02 4.57426600e+02 7.81860800e-03 1.02553000e-01
        1 -1    0    0  501    0 +0.0000000000e+00 +0.0000000000e+00 +3.1805344314e+02 3.1805344314e+02 0.0000000000e+00 0.0000e+00 -1.0000e+00
       -1 -1    0    0    0  501 -0.0000000000e+00 -0.0000000000e+00 -1.6446851150e+02 1.6446851150e+02 0.0000000000e+00 0.0000e+00 1.0000e+00
     -556  1    1    2    0    0 +1.3363761117e+01 -6.1959206600e+00 -3.9207811970e+01 2.0433852320e+02 2.0000000000e+02 0.0000e+00 1.0000e+00
      556  1    1    2    0    0 -1.3363761117e+01 +6.1959206600e+00 +1.9279274361e+02 2.7818343145e+02 2.0000000000e+02 0.0000e+00 -1.0000e+00
<mgrwt>
<rscale>  0 0.45742661E+03</rscale>
<asrwt>0</asrwt>
<pdfrwt beam="1">  1        1 0.48931299E-01 0.45742661E+03</pdfrwt>
<pdfrwt beam="2">  1       -1 0.25302848E-01 0.45742661E+03</pdfrwt>
<totfact> 0.11143136E+03</totfact>
</mgrwt>
</event>
<event>
 4      1 +1.5204000e-02 8.16252200e+02 7.81860800e-03 9.53678600e-02
       -1 -1    0    0    0  501 -0.0000000000e+00 +0.0000000000e+00 +1.2496407749e+03 1.2496407749e+03 0.0000000000e+00 0.0000e+00 1.0000e+00
        1 -1    0    0  501    0 +0.0000000000e+00 -0.0000000000e+00 -1.3329183094e+02 1.3329183094e+02 0.0000000000e+00 0.0000e+00 -1.0000e+00
     -556  1    1    2    0    0 -2.0005594114e+02 +1.8971162049e+02 +1.7723625567e+02 3.8396037407e+02 2.0000000000e+02 0.0000e+00 -1.0000e+00
      556  1    1    2    0    0 +2.0005594114e+02 -1.8971162049e+02 +9.3911268831e+02 9.9897223178e+02 2.0000000000e+02 0.0000e+00 1.0000e+00
<mgrwt>
<rscale>  0 0.81625218E+03</rscale>
<asrwt>0</asrwt>
<pdfrwt beam="2">  1        1 0.20506436E-01 0.81625218E+03</pdfrwt>
<pdfrwt beam="1">  1       -1 0.19225242E+00 0.81625218E+03</pdfrwt>
<totfact> 0.43977803E+01</totfact>
</mgrwt>
</event>
<event>
 4      1 +1.5204000e-02 4.26125500e+02 7.81860800e-03 1.03509100e-01
       -1 -1    0    0    0  501 -0.0000000000e+00 +0.0000000000e+00 +9.5486791378e+02 9.5486791378e+02 0.0000000000e+00 0.0000e+00 1.0000e+00
        1 -1    0    0  501    0 +0.0000000000e+00 -0.0000000000e+00 -4.7541374203e+01 4.7541374203e+01 0.0000000000e+00 0.0000e+00 -1.0000e+00
     -556  1    1    2    0    0 -2.6281301904e+01 +1.4983619492e+01 +6.1112377531e+02 6.4372935651e+02 2.0000000000e+02 0.0000e+00 1.0000e+00
      556  1    1    2    0    0 +2.6281301904e+01 -1.4983619492e+01 +2.9620276427e+02 3.5867993148e+02 2.0000000000e+02 0.0000e+00 -1.0000e+00
<mgrwt>
<rscale>  0 0.42612549E+03</rscale>
<asrwt>0</asrwt>
<pdfrwt beam="2">  1        1 0.73140583E-02 0.42612549E+03</pdfrwt>
<pdfrwt beam="1">  1       -1 0.14690274E+00 0.42612549E+03</pdfrwt>
<totfact> 0.39156994E+02</totfact>
</mgrwt>
</event>
<event>
 4      1 +1.5204000e-02 1.05643200e+03 7.81860800e-03 9.24872800e-02
        1 -1    0    0  501    0 +0.0000000000e+00 +0.0000000000e+00 +2.5668706756e+03 2.5668706756e+03 0.0000000000e+00 0.0000e+00 -1.0000e+00
       -1 -1    0    0    0  501 -0.0000000000e+00 -0.0000000000e+00 -1.0869747586e+02 1.0869747586e+02 0.0000000000e+00 0.0000e+00 1.0000e+00
     -556  1    1    2    0    0 -2.8660487334e+02 +4.1745123349e+01 +2.3157376736e+02 4.2132103968e+02 2.0000000000e+02 0.0000e+00 1.0000e+00
      556  1    1    2    0    0 +2.8660487334e+02 -4.1745123349e+01 +2.2265994324e+03 2.2542471118e+03 2.0000000000e+02 0.0000e+00 -1.0000e+00
<mgrwt>
<rscale>  0 0.10564324E+04</rscale>
<asrwt>0</asrwt>
<pdfrwt beam="1">  1        1 0.39490314E+00 0.10564324E+04</pdfrwt>
<pdfrwt beam="2">  1       -1 0.16722691E-01 0.10564324E+04</pdfrwt>
<totfact> 0.33870609E+01</totfact>
</mgrwt>
</event>
<event>
 4      1 +1.5204000e-02 9.08592700e+02 7.81860800e-03 9.41490300e-02
        1 -1    0    0  501    0 +0.0000000000e+00 +0.0000000000e+00 +9.6870324945e+02 9.6870324945e+02 0.0000000000e+00 0.0000e+00 -1.0000e+00
       -1 -1    0    0    0  501 -0.0000000000e+00 -0.0000000000e+00 -2.1305301960e+02 2.1305301960e+02 0.0000000000e+00 0.0000e+00 1.0000e+00
     -556  1    1    2    0    0 +6.4431717550e+01 +4.7241509042e+01 +8.9808618078e+02 9.2354858806e+02 2.0000000000e+02 0.0000e+00 -1.0000e+00
      556  1    1    2    0    0 -6.4431717550e+01 -4.7241509042e+01 -1.4243595093e+02 2.5820768099e+02 2.0000000000e+02 0.0000e+00 1.0000e+00
<mgrwt>
<rscale>  0 0.90859265E+03</rscale>
<asrwt>0</asrwt>
<pdfrwt beam="1">  1        1 0.14903127E+00 0.90859265E+03</pdfrwt>
<pdfrwt beam="2">  1       -1 0.32777388E-01 0.90859265E+03</pdfrwt>
<totfact> 0.14055911E+02</totfact>
</mgrwt>
</event>
<event>
 4      1 +1.5204000e-02 7.91750000e+02 7.81860800e-03 9.57203600e-02
        2 -1    0    0  501    0 +0.0000000000e+00 +0.0000000000e+00 +7.4608216668e+02 7.4608216668e+02 0.0000000000e+00 0.0000e+00 -1.0000e+00
       -2 -1    0    0    0  501 -0.0000000000e+00 -0.0000000000e+00 -2.1005327392e+02 2.1005327392e+02 0.0000000000e+00 0.0000e+00 1.0000e+00
     -556  1    1    2    0    0 +1.3784161031e+01 -3.4131877329e+02 +2.6156822436e+02 4.7445383768e+02 2.0000000000e+02 0.0000e+00 -1.0000e+00
      556  1    1    2    0    0 -1.3784161031e+01 +3.4131877329e+02 +2.7446066839e+02 4.8168160292e+02 2.0000000000e+02 0.0000e+00 1.0000e+00
<mgrwt>
<rscale>  0 0.79174996E+03</rscale>
<asrwt>0</asrwt>
<pdfrwt beam="1">  1        2 0.11478187E+00 0.79174996E+03</pdfrwt>
<pdfrwt beam="2">  1       -2 0.32315889E-01 0.79174996E+03</pdfrwt>
<totfact> 0.33831537E+02</totfact>
</mgrwt>
</event>
<event>
 4      1 +1.5204000e-02 8.46207200e+02 7.81860800e-03 9.49544200e-02
        1 -1    0    0  501    0 +0.0000000000e+00 +0.0000000000e+00 +4.2954451434e+02 4.2954451434e+02 0.0000000000e+00 0.0000e+00 -1.0000e+00
       -1 -1    0    0    0  501 -0.0000000000e+00 -0.0000000000e+00 -4.1675922644e+02 4.1675922644e+02 0.0000000000e+00 0.0000e+00 1.0000e+00
     -556  1    1    2    0    0 +3.2794504017e+02 +1.7344722146e+02 -3.0823852690e+01 4.2258963298e+02 2.0000000000e+02 0.0000e+00 1.0000e+00
      556  1    1    2    0    0 -3.2794504017e+02 -1.7344722146e+02 +4.3609140596e+01 4.2371410780e+02 2.0000000000e+02 0.0000e+00 -1.0000e+00
<mgrwt>
<rscale>  0 0.84620716E+03</rscale>
<asrwt>0</asrwt>
<pdfrwt beam="1">  1        1 0.66083772E-01 0.84620716E+03</pdfrwt>
<pdfrwt beam="2">  1       -1 0.64116804E-01 0.84620716E+03</pdfrwt>
<totfact> 0.13593587E+02</totfact>
</mgrwt>
</event>
<event>
 4      1 +1.5204000e-02 6.34248600e+02 7.81860800e-03 9.83679300e-02
       -2 -1    0    0    0  501 -0.0000000000e+00 +0.0000000000e+00 +1.1662014149e+02 1.1662014149e+02 0.0000000000e+00 0.0000e+00 1.0000e+00
        2 -1    0    0  501    0 +0.0000000000e+00 -0.0000000000e+00 -8.6235366130e+02 8.6235366130e+02 0.0000000000e+00 0.0000e+00 -1.0000e+00
     -556  1    1    2    0    0 +8.1285281621e+01 -2.3201753293e+02 -3.5537839892e+02 4.7616513839e+02 2.0000000000e+02 0.0000e+00 -1.0000e+00
      556  1    1    2    0    0 -8.1285281621e+01 +2.3201753293e+02 -3.9035512088e+02 5.0280866440e+02 2.0000000000e+02 0.0000e+00 1.0000e+00
<mgrwt>
<rscale>  0 0.63424855E+03</rscale>
<asrwt>0</asrwt>
<pdfrwt beam="2">  1        2 0.13266980E+00 0.63424855E+03</pdfrwt>
<pdfrwt beam="1">  1       -2 0.17941560E-01 0.63424855E+03</pdfrwt>
<totfact> 0.80744549E+02</totfact>
</mgrwt>
</event>
<event>
 4      1 +1.5204000e-02 4.22478300e+02 7.81860800e-03 1.03626300e-01
       -1 -1    0    0    0  501 -0.0000000000e+00 +0.0000000000e+00 +1.8063925528e+02 1.8063925528e+02 0.0000000000e+00 0.0000e+00 1.0000e+00
        1 -1    0    0  501    0 +0.0000000000e+00 -0.0000000000e+00 -2.4702256464e+02 2.4702256464e+02 0.0000000000e+00 0.0000e+00 -1.0000e+00
     -556  1    1    2    0    0 -3.8054370173e+01 +1.9498669207e+01 +2.0311727987e+01 2.0552590952e+02 2.0000000000e+02 0.0000e+00 -1.0000e+00
      556  1    1    2    0    0 +3.8054370173e+01 -1.9498669207e+01 -8.6695037339e+01 2.2213591040e+02 2.0000000000e+02 0.0000e+00 1.0000e+00
<mgrwt>
<rscale>  0 0.42247827E+03</rscale>
<asrwt>0</asrwt>
<pdfrwt beam="2">  1        1 0.38003471E-01 0.42247827E+03</pdfrwt>
<pdfrwt beam="1">  1       -1 0.27790655E-01 0.42247827E+03</pdfrwt>
<totfact> 0.13121799E+03</totfact>
</mgrwt>
</event>
<event>
 4      1 +1.5204000e-02 6.96391000e+02 7.81860800e-03 9.72342400e-02
       -1 -1    0    0    0  501 -0.0000000000e+00 +0.0000000000e+00 +9.2585343000e+01 9.2585343000e+01 0.0000000000e+00 0.0000e+00 1.0000e+00
        1 -1    0    0  501    0 +0.0000000000e+00 -0.0000000000e+00 -1.3094958491e+03 1.3094958491e+03 0.0000000000e+00 0.0000e+00 -1.0000e+00
     -556  1    1    2    0    0 -2.0579530508e+02 +8.4633694627e+01 -2.4984344799e+02 3.8979009526e+02 2.0000000000e+02 0.0000e+00 1.0000e+00
      556  1    1    2    0    0 +2.0579530508e+02 -8.4633694627e+01 -9.6706705810e+02 1.0122910968e+03 2.0000000000e+02 0.0000e+00 -1.0000e+00
<mgrwt>
<rscale>  0 0.69639105E+03</rscale>
<asrwt>0</asrwt>
<pdfrwt beam="2">  1        1 0.20146090E+00 0.69639105E+03</pdfrwt>
<pdfrwt beam="1">  1       -1 0.14243899E-01 0.69639105E+03</pdfrwt>
<totfact> 0.32429660E+02</totfact>
</mgrwt>
</event>
<event>
 4      1 +1.5204000e-02 6.15867400e+02 7.81860800e-03 9.87302200e-02
        1 -1    0    0  501    0 +0.0000000000e+00 +0.0000000000e+00 +6.0152057482e+02 6.0152057482e+02 0.0000000000e+00 0.0000e+00 -1.0000e+00
       -1 -1    0    0    0  501 -0.0000000000e+00 -0.0000000000e+00 -1.5763909942e+02 1.5763909942e+02 0.0000000000e+00 0.0000e+00 1.0000e+00
     -556  1    1    2    0    0 -1.0805929760e+02 +1.1115876717e+02 +4.3823814634e+02 5.0604916384e+02 2.0000000000e+02 0.0000e+00 -1.0000e+00
      556  1    1    2    0    0 +1.0805929760e+02 -1.1115876717e+02 +5.6433290612e+00 2.5311051041e+02 2.0000000000e+02 0.0000e+00 1.0000e+00
<mgrwt>
<rscale>  0 0.61586739E+03</rscale>
<asrwt>0</asrwt>
<pdfrwt beam="1">  1        1 0.92541626E-01 0.61586739E+03</pdfrwt>
<pdfrwt beam="2">  1       -1 0.24252169E-01 0.61586739E+03</pdfrwt>
<totfact> 0.50863130E+02</totfact>
</mgrwt>
</event>
<event>
 4      1 +1.5204000e-02 7.32008300e+02 7.81860800e-03 9.66400700e-02
        2 -1    0    0  501    0 +0.0000000000e+00 +0.0000000000e+00 +6.6296465449e+02 6.6296465449e+02 0.0000000000e+00 0.0000e+00 -1.0000e+00
       -2 -1    0    0    0  501 -0.0000000000e+00 -0.0000000000e+00 -2.0206058790e+02 2.0206058790e+02 0.0000000000e+00 0.0000e+00 1.0000e+00
     -556  1    1    2    0    0 +6.5218040936e+01 +1.6447078776e+02 -6.5342839126e+01 2.7490674694e+02 2.0000000000e+02 0.0000e+00 1.0000e+00
      556  1    1    2    0    0 -6.5218040936e+01 -1.6447078776e+02 +5.2624690571e+02 5.9011849544e+02 2.0000000000e+02 0.0000e+00 -1.0000e+00
<mgrwt>
<rscale>  0 0.73200827E+03</rscale>
<asrwt>0</asrwt>
<pdfrwt beam="1">  1        2 0.10199456E+00 0.73200827E+03</pdfrwt>
<pdfrwt beam="2">  1       -2 0.31086245E-01 0.73200827E+03</pdfrwt>
<totfact> 0.42335658E+02</totfact>
</mgrwt>
</event>
<event>
 4      1 +1.5204000e-02 8.76906800e+02 7.81860800e-03 9.45491900e-02
       -2 -1    0    0    0  501 -0.0000000000e+00 +0.0000000000e+00 +2.3369207893e+02 2.3369207893e+02 0.0000000000e+00 0.0000e+00 1.0000e+00
        2 -1    0    0  501    0 +0.0000000000e+00 -0.0000000000e+00 -8.2262678126e+02 8.2262678126e+02 0.0000000000e+00 0.0000e+00 -1.0000e+00
     -556  1    1    2    0    0 -2.7977081988e+02 -2.2792945359e+02 -4.7321022309e+02 6.2781483155e+02 2.0000000000e+02 0.0000e+00 -1.0000e+00
      556  1    1    2    0    0 +2.7977081988e+02 +2.2792945359e+02 -1.1572447923e+02 4.2850402864e+02 2.0000000000e+02 0.0000e+00 1.0000e+00
<mgrwt>
<rscale>  0 0.87690675E+03</rscale>
<asrwt>0</asrwt>
<pdfrwt beam="2">  1        2 0.12655797E+00 0.87690675E+03</pdfrwt>
<pdfrwt beam="1">  1       -2 0.35952627E-01 0.87690675E+03</pdfrwt>
<totfact> 0.24207136E+02</totfact>
</mgrwt>
</event>
<event>
 4      1 +1.5204000e-02 8.81992900e+02 7.81860800e-03 9.44837500e-02
        2 -1    0    0  501    0 +0.0000000000e+00 +0.0000000000e+00 +5.5415357193e+02 5.5415357193e+02 0.0000000000e+00 0.0000e+00 -1.0000e+00
       -2 -1    0    0    0  501 -0.0000000000e+00 -0.0000000000e+00 -3.5094583241e+02 3.5094583241e+02 0.0000000000e+00 0.0000e+00 1.0000e+00
     -556  1    1    2    0    0 -4.3831740281e+01 +2.3570653023e+02 +4.2120993711e+02 5.2430582771e+02 2.0000000000e+02 0.0000e+00 -1.0000e+00
      556  1    1    2    0    0 +4.3831740281e+01 -2.3570653023e+02 -2.1800219759e+02 3.8079357663e+02 2.0000000000e+02 0.0000e+00 1.0000e+00
<mgrwt>
<rscale>  0 0.88199294E+03</rscale>
<asrwt>0</asrwt>
<pdfrwt beam="1">  1        2 0.85254396E-01 0.88199294E+03</pdfrwt>
<pdfrwt beam="2">  1       -2 0.53991666E-01 0.88199294E+03</pdfrwt>
<totfact> 0.17705113E+02</totfact>
</mgrwt>
</event>
<event>
 4      1 +1.5204000e-02 4.99327200e+02 7.81860800e-03 1.01395500e-01
       -1 -1    0    0    0  501 -0.0000000000e+00 +0.0000000000e+00 +2.7330916247e+02 2.7330916247e+02 0.0000000000e+00 0.0000e+00 1.0000e+00
        1 -1    0    0  501    0 +0.0000000000e+00 -0.0000000000e+00 -2.2806376987e+02 2.2806376987e+02 0.0000000000e+00 0.0000e+00 -1.0000e+00
     -556  1    1    2    0    0 -1.4107086930e+02 -4.6979730077e+01 +7.6003614176e+00 2.4933080575e+02 2.0000000000e+02 0.0000e+00 -1.0000e+00
      556  1    1    2    0    0 +1.4107086930e+02 +4.6979730077e+01 +3.7645031182e+01 2.5204212659e+02 2.0000000000e+02 0.0000e+00 1.0000e+00
<mgrwt>
<rscale>  0 0.49932722E+03</rscale>
<asrwt>0</asrwt>
<pdfrwt beam="2">  1        1 0.35086734E-01 0.49932722E+03</pdfrwt>
<pdfrwt beam="1">  1       -1 0.42047563E-01 0.49932722E+03</pdfrwt>
<totfact> 0.70149047E+02</totfact>
</mgrwt>
</event>
<event>
 4      1 +1.5204000e-02 5.43293400e+02 7.81860800e-03 1.00305800e-01
       -1 -1    0    0    0  501 -0.0000000000e+00 +0.0000000000e+00 +2.1621036899e+02 2.1621036899e+02 0.0000000000e+00 0.0000e+00 1.0000e+00
        1 -1    0    0  501    0 +0.0000000000e+00 -0.0000000000e+00 -3.4129694113e+02 3.4129694113e+02 0.0000000000e+00 0.0000e+00 -1.0000e+00
     -556  1    1    2    0    0 +8.3088007224e+01 +5.8497031036e+01 +9.4651998699e+01 2.4348412770e+02 2.0000000000e+02 0.0000e+00 1.0000e+00
      556  1    1    2    0    0 -8.3088007224e+01 -5.8497031036e+01 -2.1973857084e+02 3.1402318242e+02 2.0000000000e+02 0.0000e+00 -1.0000e+00
<mgrwt>
<rscale>  0 0.54329343E+03</rscale>
<asrwt>0</asrwt>
<pdfrwt beam="2">  1        1 0.52507222E-01 0.54329343E+03</pdfrwt>
<pdfrwt beam="1">  1       -1 0.33263134E-01 0.54329343E+03</pdfrwt>
<totfact> 0.63467849E+02</totfact>
</mgrwt>
</event>
<event>
 4      1 +1.5204000e-02 5.30002500e+02 7.81860800e-03 1.00623200e-01
        2 -1    0    0  501    0 +0.0000000000e+00 +0.0000000000e+00 +7.2118306318e+02 7.2118306318e+02 0.0000000000e+00 0.0000e+00 1.0000e+00
       -2 -1    0    0    0  501 -0.0000000000e+00 -0.0000000000e+00 -9.7375652790e+01 9.7375652790e+01 0.0000000000e+00 0.0000e+00 -1.0000e+00
     -556  1    1    2    0    0 +9.4765472221e+01 +1.3651152206e+02 +2.3300426198e+02 3.4915165255e+02 2.0000000000e+02 0.0000e+00 -1.0000e+00
      556  1    1    2    0    0 -9.4765472221e+01 -1.3651152206e+02 +3.9080314841e+02 4.6940706342e+02 2.0000000000e+02 0.0000e+00 1.0000e+00
<mgrwt>
<rscale>  0 0.53000253E+03</rscale>
<asrwt>0</asrwt>
<pdfrwt beam="1">  1        2 0.11095124E+00 0.53000253E+03</pdfrwt>
<pdfrwt beam="2">  1       -2 0.14980870E-01 0.53000253E+03</pdfrwt>
<totfact> 0.13886159E+03</totfact>
</mgrwt>
</event>
<event>
 4      1 +1.5204000e-02 6.47479800e+02 7.81860800e-03 9.81152000e-02
        1 -1    0    0  501    0 +0.0000000000e+00 +0.0000000000e+00 +8.3480432813e+01 8.3480432813e+01 0.0000000000e+00 0.0000e+00 -1.0000e+00
       -1 -1    0    0    0  501 -0.0000000000e+00 -0.0000000000e+00 -1.2554742379e+03 1.2554742379e+03 0.0000000000e+00 0.0000e+00 1.0000e+00
     -556  1    1    2    0    0 +1.7679262561e+02 +1.5472720123e+02 -7.8873380600e+02 8.4693397381e+02 2.0000000000e+02 0.0000e+00 -1.0000e+00
      556  1    1    2    0    0 -1.7679262561e+02 -1.5472720123e+02 -3.8325999905e+02 4.9202069686e+02 2.0000000000e+02 0.0000e+00 1.0000e+00
<mgrwt>
<rscale>  0 0.64747983E+03</rscale>
<asrwt>0</asrwt>
<pdfrwt beam="1">  1        1 0.12843145E-01 0.64747983E+03</pdfrwt>
<pdfrwt beam="2">  1       -1 0.19314986E+00 0.64747983E+03</pdfrwt>
<totfact> 0.82224405E+01</totfact>
</mgrwt>
</event>
<event>
 4      1 +1.5204000e-02 5.02280400e+02 7.81860800e-03 1.01318500e-01
       -2 -1    0    0    0  501 -0.0000000000e+00 +0.0000000000e+00 +5.2542371755e+01 5.2542371755e+01 0.0000000000e+00 0.0000e+00 1.0000e+00
        2 -1    0    0  501    0 +0.0000000000e+00 -0.0000000000e+00 -1.2003912538e+03 1.2003912538e+03 0.0000000000e+00 0.0000e+00 -1.0000e+00
     -556  1    1    2    0    0 +6.7344098886e+01 +2.2017394109e+01 -2.3877585677e+02 3.1942746137e+02 2.0000000000e+02 0.0000e+00 1.0000e+00
      556  1    1    2    0    0 -6.7344098886e+01 -2.2017394109e+01 -9.0907302529e+02 9.3350616421e+02 2.0000000000e+02 0.0000e+00 -1.0000e+00
<mgrwt>
<rscale>  0 0.50228041E+03</rscale>
<asrwt>0</asrwt>
<pdfrwt beam="2">  1        2 0.18467557E+00 0.50228041E+03</pdfrwt>
<pdfrwt beam="1">  1       -2 0.80834420E-02 0.50228041E+03</pdfrwt>
<totfact> 0.18522980E+03</totfact>
</mgrwt>
</event>
<event>
 4      1 +1.5204000e-02 5.14936300e+02 7.81860800e-03 1.00995200e-01
       -2 -1    0    0    0  501 -0.0000000000e+00 +0.0000000000e+00 +6.1565911422e+02 6.1565911422e+02 0.0000000000e+00 0.0000e+00 1.0000e+00
        2 -1    0    0  501    0 +0.0000000000e+00 -0.0000000000e+00 -1.0767298566e+02 1.0767298566e+02 0.0000000000e+00 0.0000e+00 -1.0000e+00
     -556  1    1    2    0    0 +8.5054270299e+01 +7.0373761550e+01 +4.2081087655e+02 4.7881989206e+02 2.0000000000e+02 0.0000e+00 1.0000e+00
      556  1    1    2    0    0 -8.5054270299e+01 -7.0373761550e+01 +8.7175252015e+01 2.4451220782e+02 2.0000000000e+02 0.0000e+00 -1.0000e+00
<mgrwt>
<rscale>  0 0.51493633E+03</rscale>
<asrwt>0</asrwt>
<pdfrwt beam="2">  1        2 0.16565075E-01 0.51493633E+03</pdfrwt>
<pdfrwt beam="1">  1       -2 0.94716785E-01 0.51493633E+03</pdfrwt>
<totfact> 0.33754659E+02</totfact>
</mgrwt>
</event>
<event>
 4      1 +1.5204000e-02 4.52366200e+02 7.81860800e-03 1.02701900e-01
        1 -1    0    0  501    0 +0.0000000000e+00 +0.0000000000e+00 +2.2541062956e+03 2.2541062956e+03 0.0000000000e+00 0.0000e+00 -1.0000e+00
       -1 -1    0    0    0  501 -0.0000000000e+00 -0.0000000000e+00 -2.2695821895e+01 2.2695821895e+01 0.0000000000e+00 0.0000e+00 1.0000e+00
     -556  1    1    2    0    0 -1.3293308071e+01 -4.7882196441e+01 +6.4653604236e+02 6.7858549266e+02 2.0000000000e+02 0.0000e+00 1.0000e+00
      556  1    1    2    0    0 +1.3293308071e+01 +4.7882196441e+01 +1.5848744313e+03 1.5982166248e+03 2.0000000000e+02 0.0000e+00 -1.0000e+00
<mgrwt>
<rscale>  0 0.45236620E+03</rscale>
<asrwt>0</asrwt>
<pdfrwt beam="1">  1        1 0.34678541E+00 0.45236620E+03</pdfrwt>
<pdfrwt beam="2">  1       -1 0.34916667E-02 0.45236620E+03</pdfrwt>
<totfact> 0.68018244E+02</totfact>
</mgrwt>
</event>
<event>
 4      1 +1.5204000e-02 6.93021400e+02 7.81860800e-03 9.72924200e-02
        2 -1    0    0  501    0 +0.0000000000e+00 +0.0000000000e+00 +2.5876624209e+03 2.5876624209e+03 0.0000000000e+00 0.0000e+00 -1.0000e+00
       -2 -1    0    0    0  501 -0.0000000000e+00 -0.0000000000e+00 -4.6400817058e+01 4.6400817058e+01 0.0000000000e+00 0.0000e+00 1.0000e+00
     -556  1    1    2    0    0 -4.4288639950e+01 +1.0429302123e+01 +2.0911808913e+02 2.9291744430e+02 2.0000000000e+02 0.0000e+00 1.0000e+00
      556  1    1    2    0    0 +4.4288639950e+01 -1.0429302123e+01 +2.3321435147e+03 2.3411457937e+03 2.0000000000e+02 0.0000e+00 -1.0000e+00
<mgrwt>
<rscale>  0 0.69302136E+03</rscale>
<asrwt>0</asrwt>
<pdfrwt beam="1">  1        2 0.39810180E+00 0.69302136E+03</pdfrwt>
<pdfrwt beam="2">  1       -2 0.71385892E-02 0.69302136E+03</pdfrwt>
<totfact> 0.38202911E+02</totfact>
</mgrwt>
</event>
<event>
 4      1 +1.5204000e-02 7.84223800e+02 7.81860800e-03 9.58313700e-02
       -2 -1    0    0    0  501 -0.0000000000e+00 +0.0000000000e+00 +1.2482164224e+02 1.2482164224e+02 0.0000000000e+00 0.0000e+00 1.0000e+00
        2 -1    0    0  501    0 +0.0000000000e+00 -0.0000000000e+00 -1.2317715098e+03 1.2317715098e+03 0.0000000000e+00 0.0000e+00 -1.0000e+00
     -556  1    1    2    0    0 +2.4473183674e+02 +5.0227155925e+01 -1.6153666612e+02 3.5848365877e+02 2.0000000000e+02 0.0000e+00 1.0000e+00
      556  1    1    2    0    0 -2.4473183674e+02 -5.0227155925e+01 -9.4541320139e+02 9.9810949323e+02 2.0000000000e+02 0.0000e+00 -1.0000e+00
<mgrwt>
<rscale>  0 0.78422380E+03</rscale>
<asrwt>0</asrwt>
<pdfrwt beam="2">  1        2 0.18950331E+00 0.78422380E+03</pdfrwt>
<pdfrwt beam="1">  1       -2 0.19203330E-01 0.78422380E+03</pdfrwt>
<totfact> 0.41836802E+02</totfact>
</mgrwt>
</event>
<event>
 4      1 +1.5204000e-02 7.98858900e+02 7.81860800e-03 9.56167000e-02
       -2 -1    0    0    0  501 -0.0000000000e+00 +0.0000000000e+00 +2.6154565484e+02 2.6154565484e+02 0.0000000000e+00 0.0000e+00 1.0000e+00
        2 -1    0    0  501    0 +0.0000000000e+00 -0.0000000000e+00 -6.1000393557e+02 6.1000393557e+02 0.0000000000e+00 0.0000e+00 -1.0000e+00
     -556  1    1    2    0    0 +4.4274346198e+01 +2.3825781139e+02 -4.4327981758e+02 5.4334519331e+02 2.0000000000e+02 0.0000e+00 -1.0000e+00
      556  1    1    2    0    0 -4.4274346198e+01 -2.3825781139e+02 +9.4821536854e+01 3.2820439709e+02 2.0000000000e+02 0.0000e+00 1.0000e+00
<mgrwt>
<rscale>  0 0.79885888E+03</rscale>
<asrwt>0</asrwt>
<pdfrwt beam="2">  1        2 0.93846758E-01 0.79885888E+03</pdfrwt>
<pdfrwt beam="1">  1       -2 0.40237793E-01 0.79885888E+03</pdfrwt>
<totfact> 0.28587178E+02</totfact>
</mgrwt>
</event>
<event>
 4      1 +1.5204000e-02 6.39951900e+02 7.81860800e-03 9.82581800e-02
       -1 -1    0    0    0  501 -0.0000000000e+00 +0.0000000000e+00 +1.6859290253e+02 1.6859290253e+02 0.0000000000e+00 0.0000e+00 1.0000e+00
        1 -1    0    0  501    0 +0.0000000000e+00 -0.0000000000e+00 -6.0728905172e+02 6.0728905172e+02 0.0000000000e+00 0.0000e+00 -1.0000e+00
     -556  1    1    2    0    0 -2.4360101595e+01 -6.7081225776e-01 +8.2028888238e+01 2.1753758996e+02 2.0000000000e+02 0.0000e+00 1.0000e+00
      556  1    1    2    0    0 +2.4360101595e+01 +6.7081225776e-01 -5.2072503742e+02 5.5834436429e+02 2.0000000000e+02 0.0000e+00 -1.0000e+00
<mgrwt>
<rscale>  0 0.63995195E+03</rscale>
<asrwt>0</asrwt>
<pdfrwt beam="2">  1        1 0.93429084E-01 0.63995195E+03</pdfrwt>
<pdfrwt beam="1">  1       -1 0.25937370E-01 0.63995195E+03</pdfrwt>
<totfact> 0.44718701E+02</totfact>
</mgrwt>
</event>
<event>
 4      1 +1.5204000e-02 5.00844900e+02 7.81860800e-03 1.01355900e-01
       -2 -1    0    0    0  501 -0.0000000000e+00 +0.0000000000e+00 +2.1586601669e+02 2.1586601669e+02 0.0000000000e+00 0.0000e+00 1.0000e+00
        2 -1    0    0  501    0 +0.0000000000e+00 -0.0000000000e+00 -2.9051073906e+02 2.9051073906e+02 0.0000000000e+00 0.0000e+00 -1.0000e+00
     -556  1    1    2    0    0 -6.2112542131e+01 -5.7800106347e+01 +8.8602792940e+01 2.3462581934e+02 2.0000000000e+02 0.0000e+00 1.0000e+00
      556  1    1    2    0    0 +6.2112542131e+01 +5.7800106347e+01 -1.6324751531e+02 2.7175093641e+02 2.0000000000e+02 0.0000e+00 -1.0000e+00
<mgrwt>
<rscale>  0 0.50084487E+03</rscale>
<asrwt>0</asrwt>
<pdfrwt beam="2">  1        2 0.44693960E-01 0.50084487E+03</pdfrwt>
<pdfrwt beam="1">  1       -2 0.33210156E-01 0.50084487E+03</pdfrwt>
<totfact> 0.96533534E+02</totfact>
</mgrwt>
</event>
<event>
 4      1 +1.5204000e-02 7.94309100e+02 7.81860800e-03 9.56829100e-02
       -2 -1    0    0    0  501 -0.0000000000e+00 +0.0000000000e+00 +3.4225058266e+01 3.4225058266e+01 0.0000000000e+00 0.0000e+00 1.0000e+00
        2 -1    0    0  501    0 +0.0000000000e+00 -0.0000000000e+00 -4.6086620020e+03 4.6086620020e+03 0.0000000000e+00 0.0000e+00 -1.0000e+00
     -556  1    1    2    0    0 -5.9831653056e+01 +2.6081621274e+02 -1.0318382867e+03 1.0845714238e+03 2.0000000000e+02 0.0000e+00 1.0000e+00
      556  1    1    2    0    0 +5.9831653056e+01 -2.6081621274e+02 -3.5425986571e+03 3.5583156365e+03 2.0000000000e+02 0.0000e+00 -1.0000e+00
<mgrwt>
<rscale>  0 0.79430907E+03</rscale>
<asrwt>0</asrwt>
<pdfrwt beam="2">  1        2 0.70902506E+00 0.79430907E+03</pdfrwt>
<pdfrwt beam="1">  1       -2 0.52653926E-02 0.79430907E+03</pdfrwt>
<totfact> 0.20618960E+01</totfact>
</mgrwt>
</event>
<event>
 4      1 +1.5204000e-02 6.01562200e+02 7.81860800e-03 9.90217000e-02
        2 -1    0    0  501    0 +0.0000000000e+00 +0.0000000000e+00 +1.1842743305e+03 1.1842743305e+03 0.0000000000e+00 0.0000e+00 -1.0000e+00
       -2 -1    0    0    0  501 -0.0000000000e+00 -0.0000000000e+00 -7.6392158336e+01 7.6392158336e+01 0.0000000000e+00 0.0000e+00 1.0000e+00
     -556  1    1    2    0    0 +1.4584800294e+02 +3.9333412849e+01 +9.0241580437e+02 9.3657516586e+02 2.0000000000e+02 0.0000e+00 -1.0000e+00
      556  1    1    2    0    0 -1.4584800294e+02 -3.9333412849e+01 +2.0546636777e+02 3.2409132295e+02 2.0000000000e+02 0.0000e+00 1.0000e+00
<mgrwt>
<rscale>  0 0.60156221E+03</rscale>
<asrwt>0</asrwt>
<pdfrwt beam="1">  1        2 0.18219604E+00 0.60156221E+03</pdfrwt>
<pdfrwt beam="2">  1       -2 0.11752641E-01 0.60156221E+03</pdfrwt>
<totfact> 0.10312563E+03</totfact>
</mgrwt>
</event>
<event>
 4      1 +1.5204000e-02 4.96350600e+02 7.81860800e-03 1.01473600e-01
        2 -1    0    0  501    0 +0.0000000000e+00 +0.0000000000e+00 +7.5993441315e+01 7.5993441315e+01 0.0000000000e+00 0.0000e+00 -1.0000e+00
       -2 -1    0    0    0  501 -0.0000000000e+00 -0.0000000000e+00 -8.1047752336e+02 8.1047752336e+02 0.0000000000e+00 0.0000e+00 1.0000e+00
     -556  1    1    2    0    0 +4.0071899240e+01 -1.3443368181e+02 -2.8913121437e+02 3.7851688343e+02 2.0000000000e+02 0.0000e+00 1.0000e+00
      556  1    1    2    0    0 -4.0071899240e+01 +1.3443368181e+02 -4.4535286767e+02 5.0795408125e+02 2.0000000000e+02 0.0000e+00 -1.0000e+00
<mgrwt>
<rscale>  0 0.49635059E+03</rscale>
<asrwt>0</asrwt>
<pdfrwt beam="1">  1        2 0.11691299E-01 0.49635059E+03</pdfrwt>
<pdfrwt beam="2">  1       -2 0.12468885E+00 0.49635059E+03</pdfrwt>
<totfact> 0.26692119E+02</totfact>
</mgrwt>
</event>
<event>
 4      1 +1.5204000e-02 5.45281100e+02 7.81860800e-03 1.00259200e-01
       -3 -1    0    0    0  501 -0.0000000000e+00 +0.0000000000e+00 +3.8416614246e+02 3.8416614246e+02 0.0000000000e+00 0.0000e+00 1.0000e+00
        3 -1    0    0  501    0 +0.0000000000e+00 -0.0000000000e+00 -1.9349147379e+02 1.9349147379e+02 0.0000000000e+00 0.0000e+00 -1.0000e+00
     -556  1    1    2    0    0 -3.0679599287e+01 -8.9599532433e+01 -7.3378228728e+01 2.3313875370e+02 2.0000000000e+02 0.0000e+00 -1.0000e+00
      556  1    1    2    0    0 +3.0679599287e+01 +8.9599532433e+01 +2.6405289740e+02 3.4451886255e+02 2.0000000000e+02 0.0000e+00 1.0000e+00
<mgrwt>
<rscale>  0 0.54528111E+03</rscale>
<asrwt>0</asrwt>
<pdfrwt beam="2">  1        3 0.29767919E-01 0.54528111E+03</pdfrwt>
<pdfrwt beam="1">  1       -3 0.59102483E-01 0.54528111E+03</pdfrwt>
<totfact> 0.80721772E+01</totfact>
</mgrwt>
</event>
<event>
 4      1 +1.5204000e-02 4.59291100e+02 7.81860800e-03 1.02498700e-01
        2 -1    0    0  501    0 +0.0000000000e+00 +0.0000000000e+00 +8.4100680406e+02 8.4100680406e+02 0.0000000000e+00 0.0000e+00 -1.0000e+00
       -2 -1    0    0    0  501 -0.0000000000e+00 -0.0000000000e+00 -6.2707080495e+01 6.2707080495e+01 0.0000000000e+00 0.0000e+00 1.0000e+00
     -556  1    1    2    0    0 +4.9029610768e+01 -8.7155420660e+01 +4.9209104142e+02 5.4051231543e+02 2.0000000000e+02 0.0000e+00 -1.0000e+00
      556  1    1    2    0    0 -4.9029610768e+01 +8.7155420660e+01 +2.8620868215e+02 3.6320156913e+02 2.0000000000e+02 0.0000e+00 1.0000e+00
<mgrwt>
<rscale>  0 0.45929111E+03</rscale>
<asrwt>0</asrwt>
<pdfrwt beam="1">  1        2 0.12938565E+00 0.45929111E+03</pdfrwt>
<pdfrwt beam="2">  1       -2 0.96472438E-02 0.45929111E+03</pdfrwt>
<totfact> 0.23446645E+03</totfact>
</mgrwt>
</event>
<event>
 4      1 +1.5204000e-02 5.83081400e+02 7.81860800e-03 9.94114200e-02
       -1 -1    0    0    0  501 -0.0000000000e+00 +0.0000000000e+00 +1.1886467732e+02 1.1886467732e+02 0.0000000000e+00 0.0000e+00 1.0000e+00
        1 -1    0    0  501    0 +0.0000000000e+00 -0.0000000000e+00 -7.1506501352e+02 7.1506501352e+02 0.0000000000e+00 0.0000e+00 -1.0000e+00
     -556  1    1    2    0    0 +1.6462556998e+02 +8.2983166162e+01 -1.4804250253e+02 3.0968430169e+02 2.0000000000e+02 0.0000e+00 1.0000e+00
      556  1    1    2    0    0 -1.6462556998e+02 -8.2983166162e+01 -4.4815783367e+02 5.2424538915e+02 2.0000000000e+02 0.0000e+00 -1.0000e+00
<mgrwt>
<rscale>  0 0.58308137E+03</rscale>
<asrwt>0</asrwt>
<pdfrwt beam="2">  1        1 0.11001000E+00 0.58308137E+03</pdfrwt>
<pdfrwt beam="1">  1       -1 0.18286874E-01 0.58308137E+03</pdfrwt>
<totfact> 0.63244986E+02</totfact>
</mgrwt>
</event>
<event>
 4      1 +1.5204000e-02 6.48566200e+02 7.81860800e-03 9.80947300e-02
        2 -1    0    0  501    0 +0.0000000000e+00 +0.0000000000e+00 +2.2909847379e+03 2.2909847379e+03 0.0000000000e+00 0.0000e+00 -1.0000e+00
       -2 -1    0    0    0  501 -0.0000000000e+00 -0.0000000000e+00 -4.5901459787e+01 4.5901459787e+01 0.0000000000e+00 0.0000e+00 1.0000e+00
     -556  1    1    2    0    0 +9.5215817524e+01 -2.1368137122e+02 +7.5449427178e+02 8.1485421178e+02 2.0000000000e+02 0.0000e+00 1.0000e+00
      556  1    1    2    0    0 -9.5215817524e+01 +2.1368137122e+02 +1.4905890064e+03 1.5220319859e+03 2.0000000000e+02 0.0000e+00 -1.0000e+00
<mgrwt>
<rscale>  0 0.64856625E+03</rscale>
<asrwt>0</asrwt>
<pdfrwt beam="1">  1        2 0.35245910E+00 0.64856625E+03</pdfrwt>
<pdfrwt beam="2">  1       -2 0.70617648E-02 0.64856625E+03</pdfrwt>
<totfact> 0.57258310E+02</totfact>
</mgrwt>
</event>
<event>
 4      1 +1.5204000e-02 6.52059200e+02 7.81860800e-03 9.80292300e-02
       -2 -1    0    0    0  501 -0.0000000000e+00 +0.0000000000e+00 +3.8658496104e+01 3.8658496104e+01 0.0000000000e+00 0.0000e+00 1.0000e+00
        2 -1    0    0  501    0 +0.0000000000e+00 -0.0000000000e+00 -2.7495971089e+03 2.7495971089e+03 0.0000000000e+00 0.0000e+00 -1.0000e+00
     -556  1    1    2    0    0 -8.5669179440e+01 +1.5774281441e+01 -2.3915449367e+03 2.4014735519e+03 2.0000000000e+02 0.0000e+00 -1.0000e+00
      556  1    1    2    0    0 +8.5669179440e+01 -1.5774281441e+01 -3.1939367605e+02 3.8678205305e+02 2.0000000000e+02 0.0000e+00 1.0000e+00
<mgrwt>
<rscale>  0 0.65205917E+03</rscale>
<asrwt>0</asrwt>
<pdfrwt beam="2">  1        2 0.42301491E+00 0.65205917E+03</pdfrwt>
<pdfrwt beam="1">  1       -2 0.59474614E-02 0.65205917E+03</pdfrwt>
<totfact> 0.41244177E+02</totfact>
</mgrwt>
</event>
<event>
 4      1 +1.5204000e-02 8.82699700e+02 7.81860800e-03 9.44747000e-02
       -1 -1    0    0    0  501 -0.0000000000e+00 +0.0000000000e+00 +9.6878162986e+02 9.6878162986e+02 0.0000000000e+00 0.0000e+00 1.0000e+00
        1 -1    0    0  501    0 +0.0000000000e+00 -0.0000000000e+00 -2.0106668631e+02 2.0106668631e+02 0.0000000000e+00 0.0000e+00 -1.0000e+00
     -556  1    1    2    0    0 +6.1460066390e+01 -4.5850497266e+01 -1.2756361949e+02 2.4930319869e+02 2.0000000000e+02 0.0000e+00 -1.0000e+00
      556  1    1    2    0    0 -6.1460066390e+01 +4.5850497266e+01 +8.9527856305e+02 9.2054511748e+02 2.0000000000e+02 0.0000e+00 1.0000e+00
<mgrwt>
<rscale>  0 0.88269975E+03</rscale>
<asrwt>0</asrwt>
<pdfrwt beam="2">  1        1 0.30933337E-01 0.88269975E+03</pdfrwt>
<pdfrwt beam="1">  1       -1 0.14904332E+00 0.88269975E+03</pdfrwt>
<totfact> 0.52961376E+01</totfact>
</mgrwt>
</event>
<event>
 4      1 +1.5204000e-02 9.27419000e+02 7.81860800e-03 9.39194100e-02
        2 -1    0    0  501    0 +0.0000000000e+00 +0.0000000000e+00 +9.6027005164e+02 9.6027005164e+02 0.0000000000e+00 0.0000e+00 1.0000e+00
       -2 -1    0    0    0  501 -0.0000000000e+00 -0.0000000000e+00 -2.2392293571e+02 2.2392293571e+02 0.0000000000e+00 0.0000e+00 -1.0000e+00
     -556  1    1    2    0    0 +1.3025024390e+02 -2.1907578892e+02 -5.5445403440e+01 3.2868452974e+02 2.0000000000e+02 0.0000e+00 -1.0000e+00
      556  1    1    2    0    0 -1.3025024390e+02 +2.1907578892e+02 +7.9179251937e+02 8.5550845762e+02 2.0000000000e+02 0.0000e+00 1.0000e+00
<mgrwt>
<rscale>  0 0.92741898E+03</rscale>
<asrwt>0</asrwt>
<pdfrwt beam="1">  1        2 0.14773385E+00 0.92741898E+03</pdfrwt>
<pdfrwt beam="2">  1       -2 0.34449683E-01 0.92741898E+03</pdfrwt>
<totfact> 0.21117200E+02</totfact>
</mgrwt>
</event>
<event>
 4      1 +1.5204000e-02 6.17528000e+02 7.81860800e-03 9.86969400e-02
        2 -1    0    0  501    0 +0.0000000000e+00 +0.0000000000e+00 +1.6888683475e+02 1.6888683475e+02 0.0000000000e+00 0.0000e+00 -1.0000e+00
       -2 -1    0    0    0  501 -0.0000000000e+00 -0.0000000000e+00 -5.6449159862e+02 5.6449159862e+02 0.0000000000e+00 0.0000e+00 1.0000e+00
     -556  1    1    2    0    0 +9.1725840526e+01 +2.2913474135e+01 -4.5361049069e+02 5.0467923910e+02 2.0000000000e+02 0.0000e+00 1.0000e+00
      556  1    1    2    0    0 -9.1725840526e+01 -2.2913474135e+01 +5.8005726817e+01 2.2869919427e+02 2.0000000000e+02 0.0000e+00 -1.0000e+00
<mgrwt>
<rscale>  0 0.61752797E+03</rscale>
<asrwt>0</asrwt>
<pdfrwt beam="1">  1        2 0.25982590E-01 0.61752797E+03</pdfrwt>
<pdfrwt beam="2">  1       -2 0.86844861E-01 0.61752797E+03</pdfrwt>
<totfact> 0.24322724E+02</totfact>
</mgrwt>
</event>
<event>
 4      1 +1.5204000e-02 7.74347500e+02 7.81860800e-03 9.59790900e-02
        2 -1    0    0  501    0 +0.0000000000e+00 +0.0000000000e+00 +7.6361344612e+02 7.6361344612e+02 0.0000000000e+00 0.0000e+00 -1.0000e+00
       -2 -1    0    0    0  501 -0.0000000000e+00 -0.0000000000e+00 -1.9630813354e+02 1.9630813354e+02 0.0000000000e+00 0.0000e+00 1.0000e+00
     -556  1    1    2    0    0 +2.3969388089e+02 +1.3444585475e+02 +5.3816051000e+01 3.4412935321e+02 2.0000000000e+02 0.0000e+00 1.0000e+00
      556  1    1    2    0    0 -2.3969388089e+02 -1.3444585475e+02 +5.1348926158e+02 6.1579222645e+02 2.0000000000e+02 0.0000e+00 -1.0000e+00
<mgrwt>
<rscale>  0 0.77434755E+03</rscale>
<asrwt>0</asrwt>
<pdfrwt beam="1">  1        2 0.11747899E+00 0.77434755E+03</pdfrwt>
<pdfrwt beam="2">  1       -2 0.30201252E-01 0.77434755E+03</pdfrwt>
<totfact> 0.37279072E+02</totfact>
</mgrwt>
</event>
<event>
 4      1 +1.5204000e-02 6.10191800e+02 7.81860800e-03 9.88448400e-02
       -2 -1    0    0    0  501 -0.0000000000e+00 +0.0000000000e+00 +1.7631276371e+02 1.7631276371e+02 0.0000000000e+00 0.0000e+00 1.0000e+00
        2 -1    0    0  501    0 +0.0000000000e+00 -0.0000000000e+00 -5.2794539282e+02 5.2794539282e+02 0.0000000000e+00 0.0000e+00 -1.0000e+00
     -556  1    1    2    0    0 -1.3432407654e+02 -1.8678353566e+02 -1.9006746651e+02 3.5924460825e+02 2.0000000000e+02 0.0000e+00 1.0000e+00
      556  1    1    2    0    0 +1.3432407654e+02 +1.8678353566e+02 -1.6156516261e+02 3.4501354828e+02 2.0000000000e+02 0.0000e+00 -1.0000e+00
<mgrwt>
<rscale>  0 0.61019181E+03</rscale>
<asrwt>0</asrwt>
<pdfrwt beam="2">  1        2 0.81222367E-01 0.61019181E+03</pdfrwt>
<pdfrwt beam="1">  1       -2 0.27125041E-01 0.61019181E+03</pdfrwt>
<totfact> 0.71753123E+02</totfact>
</mgrwt>
</event>
<event>
 4      1 +1.5204000e-02 7.36087800e+02 7.81860800e-03 9.65743300e-02
        2 -1    0    0  501    0 +0.0000000000e+00 +0.0000000000e+00 +1.0821511924e+03 1.0821511924e+03 0.0000000000e+00 0.0000e+00 1.0000e+00
       -2 -1    0    0    0  501 -0.0000000000e+00 -0.0000000000e+00 -1.2517319899e+02 1.2517319899e+02 0.0000000000e+00 0.0000e+00 -1.0000e+00
     -556  1    1    2    0    0 -2.7077030667e+02 -1.3299128597e+02 +3.6903670849e+02 5.1690553617e+02 2.0000000000e+02 0.0000e+00 -1.0000e+00
      556  1    1    2    0    0 +2.7077030667e+02 +1.3299128597e+02 +5.8794128493e+02 6.9041885522e+02 2.0000000000e+02 0.0000e+00 1.0000e+00
<mgrwt>
<rscale>  0 0.73608784E+03</rscale>
<asrwt>0</asrwt>
<pdfrwt beam="1">  1        2 0.16648479E+00 0.73608784E+03</pdfrwt>
<pdfrwt beam="2">  1       -2 0.19257416E-01 0.73608784E+03</pdfrwt>
<totfact> 0.51314479E+02</totfact>
</mgrwt>
</event>
<event>
 4      1 +1.5204000e-02 8.40581600e+02 7.81860800e-03 9.50306600e-02
        2 -1    0    0  501    0 +0.0000000000e+00 +0.0000000000e+00 +7.0064302226e+02 7.0064302226e+02 0.0000000000e+00 0.0000e+00 1.0000e+00
       -2 -1    0    0    0  501 -0.0000000000e+00 -0.0000000000e+00 -2.5211748788e+02 2.5211748788e+02 0.0000000000e+00 0.0000e+00 -1.0000e+00
     -556  1    1    2    0    0 +1.9021985230e+02 +1.7350425514e+02 +5.2491030130e+02 6.1791434938e+02 2.0000000000e+02 0.0000e+00 1.0000e+00
      556  1    1    2    0    0 -1.9021985230e+02 -1.7350425514e+02 -7.6384766915e+01 3.3484616076e+02 2.0000000000e+02 0.0000e+00 -1.0000e+00
<mgrwt>
<rscale>  0 0.84058161E+03</rscale>
<asrwt>0</asrwt>
<pdfrwt beam="1">  1        2 0.10779123E+00 0.84058161E+03</pdfrwt>
<pdfrwt beam="2">  1       -2 0.38787306E-01 0.84058161E+03</pdfrwt>
<totfact> 0.25819955E+02</totfact>
</mgrwt>
</event>
<event>
 4      1 +1.5204000e-02 5.55029300e+02 7.81860800e-03 1.00033700e-01
       -2 -1    0    0    0  501 -0.0000000000e+00 +0.0000000000e+00 +9.4388119308e+01 9.4388119308e+01 0.0000000000e+00 0.0000e+00 1.0000e+00
        2 -1    0    0  501    0 +0.0000000000e+00 -0.0000000000e+00 -8.1593297410e+02 8.1593297410e+02 0.0000000000e+00 0.0000e+00 -1.0000e+00
     -556  1    1    2    0    0 -6.4681279580e+01 -1.3433562571e+02 -1.6134529932e+02 2.9708926920e+02 2.0000000000e+02 0.0000e+00 1.0000e+00
      556  1    1    2    0    0 +6.4681279580e+01 +1.3433562571e+02 -5.6019955548e+02 6.1323182421e+02 2.0000000000e+02 0.0000e+00 -1.0000e+00
<mgrwt>
<rscale>  0 0.55502929E+03</rscale>
<asrwt>0</asrwt>
<pdfrwt beam="2">  1        2 0.12552815E+00 0.55502929E+03</pdfrwt>
<pdfrwt beam="1">  1       -2 0.14521249E-01 0.55502929E+03</pdfrwt>
<totfact> 0.12474626E+03</totfact>
</mgrwt>
</event>
<event>
 4      1 +1.5204000e-02 7.23081500e+02 7.81860800e-03 9.67855400e-02
        2 -1    0    0  501    0 +0.0000000000e+00 +0.0000000000e+00 +1.7706961600e+03 1.7706961600e+03 0.0000000000e+00 0.0000e+00 1.0000e+00
       -2 -1    0    0    0  501 -0.0000000000e+00 -0.0000000000e+00 -7.3819386725e+01 7.3819386725e+01 0.0000000000e+00 0.0000e+00 -1.0000e+00
     -556  1    1    2    0    0 -3.5167264655e+01 -1.1568065943e+02 +1.4477119131e+02 2.7491353059e+02 2.0000000000e+02 0.0000e+00 -1.0000e+00
      556  1    1    2    0    0 +3.5167264655e+01 +1.1568065943e+02 +1.5521055820e+03 1.5696020162e+03 2.0000000000e+02 0.0000e+00 1.0000e+00
<mgrwt>
<rscale>  0 0.72308147E+03</rscale>
<asrwt>0</asrwt>
<pdfrwt beam="1">  1        2 0.27241476E+00 0.72308147E+03</pdfrwt>
<pdfrwt beam="2">  1       -2 0.11356830E-01 0.72308147E+03</pdfrwt>
<totfact> 0.50914674E+02</totfact>
</mgrwt>
</event>
<event>
 4      1 +1.5204000e-02 5.16102100e+02 7.81860800e-03 1.00965900e-01
        2 -1    0    0  501    0 +0.0000000000e+00 +0.0000000000e+00 +9.8165288099e+02 9.8165288099e+02 0.0000000000e+00 0.0000e+00 -1.0000e+00
       -2 -1    0    0    0  501 -0.0000000000e+00 -0.0000000000e+00 -6.7834926911e+01 6.7834926911e+01 0.0000000000e+00 0.0000e+00 1.0000e+00
     -556  1    1    2    0    0 -8.3402134610e+01 +1.1966112998e+02 +3.0865037157e+02 3.9565105075e+02 2.0000000000e+02 0.0000e+00 1.0000e+00
      556  1    1    2    0    0 +8.3402134610e+01 -1.1966112998e+02 +6.0516758251e+02 6.5383675715e+02 2.0000000000e+02 0.0000e+00 -1.0000e+00
<mgrwt>
<rscale>  0 0.51610213E+03</rscale>
<asrwt>0</asrwt>
<pdfrwt beam="1">  1        2 0.15102351E+00 0.51610213E+03</pdfrwt>
<pdfrwt beam="2">  1       -2 0.10436143E-01 0.51610213E+03</pdfrwt>
<totfact> 0.16680153E+03</totfact>
</mgrwt>
</event>
<event>
 4      1 +1.5204000e-02 4.35442100e+02 7.81860800e-03 1.03215400e-01
       -2 -1    0    0    0  501 -0.0000000000e+00 +0.0000000000e+00 +7.8247272816e+01 7.8247272816e+01 0.0000000000e+00 0.0000e+00 1.0000e+00
        2 -1    0    0  501    0 +0.0000000000e+00 -0.0000000000e+00 -6.0580342643e+02 6.0580342643e+02 0.0000000000e+00 0.0000e+00 -1.0000e+00
     -556  1    1    2    0    0 +7.4279665490e+01 +2.0385974267e+01 -2.0355967513e+02 2.9558348735e+02 2.0000000000e+02 0.0000e+00 1.0000e+00
      556  1    1    2    0    0 -7.4279665490e+01 -2.0385974267e+01 -3.2399647848e+02 3.8846721190e+02 2.0000000000e+02 0.0000e+00 -1.0000e+00
<mgrwt>
<rscale>  0 0.43544215E+03</rscale>
<asrwt>0</asrwt>
<pdfrwt beam="2">  1        2 0.93200526E-01 0.43544215E+03</pdfrwt>
<pdfrwt beam="1">  1       -2 0.12038042E-01 0.43544215E+03</pdfrwt>
<totfact> 0.24677375E+03</totfact>
</mgrwt>
</event>
<event>
 4      1 +1.5204000e-02 5.61815700e+02 7.81860800e-03 9.98795500e-02
       -1 -1    0    0    0  501 -0.0000000000e+00 +0.0000000000e+00 +2.3271203398e+02 2.3271203398e+02 0.0000000000e+00 0.0000e+00 1.0000e+00
        1 -1    0    0  501    0 +0.0000000000e+00 -0.0000000000e+00 -3.3908527360e+02 3.3908527360e+02 0.0000000000e+00 0.0000e+00 -1.0000e+00
     -556  1    1    2    0    0 -3.7785778528e+01 +1.2017345153e+02 +1.0129882911e+02 2.5715924306e+02 2.0000000000e+02 0.0000e+00 1.0000e+00
      556  1    1    2    0    0 +3.7785778528e+01 -1.2017345153e+02 -2.0767206874e+02 3.1463806452e+02 2.0000000000e+02 0.0000e+00 -1.0000e+00
<mgrwt>
<rscale>  0 0.56181571E+03</rscale>
<asrwt>0</asrwt>
<pdfrwt beam="2">  1        1 0.52166965E-01 0.56181571E+03</pdfrwt>
<pdfrwt beam="1">  1       -1 0.35801851E-01 0.56181571E+03</pdfrwt>
<totfact> 0.56183975E+02</totfact>
</mgrwt>
</event>
<event>
 4      1 +1.5204000e-02 4.64015100e+02 7.81860800e-03 1.02362300e-01
       -2 -1    0    0    0  501 -0.0000000000e+00 +0.0000000000e+00 +2.3108441363e+02 2.3108441363e+02 0.0000000000e+00 0.0000e+00 1.0000e+00
        2 -1    0    0  501    0 +0.0000000000e+00 -0.0000000000e+00 -2.3293433767e+02 2.3293433767e+02 0.0000000000e+00 0.0000e+00 -1.0000e+00
     -556  1    1    2    0    0 +3.1124868628e+00 +9.0827525524e+01 +7.3695788243e+01 2.3171188181e+02 2.0000000000e+02 0.0000e+00 1.0000e+00
      556  1    1    2    0    0 -3.1124868628e+00 -9.0827525524e+01 -7.5545712287e+01 2.3230686949e+02 2.0000000000e+02 0.0000e+00 -1.0000e+00
<mgrwt>
<rscale>  0 0.46401506E+03</rscale>
<asrwt>0</asrwt>
<pdfrwt beam="2">  1        2 0.35836052E-01 0.46401506E+03</pdfrwt>
<pdfrwt beam="1">  1       -2 0.35551448E-01 0.46401506E+03</pdfrwt>
<totfact> 0.10825952E+03</totfact>
</mgrwt>
</event>
<event>
 4      1 +1.5204000e-02 5.73884700e+02 7.81860800e-03 9.96111900e-02
       -2 -1    0    0    0  501 -0.0000000000e+00 +0.0000000000e+00 +2.8742871256e+01 2.8742871256e+01 0.0000000000e+00 0.0000e+00 -1.0000e+00
        2 -1    0    0  501    0 +0.0000000000e+00 -0.0000000000e+00 -2.8645682828e+03 2.8645682828e+03 0.0000000000e+00 0.0000e+00 1.0000e+00
     -556  1    1    2    0    0 +1.9785758128e+02 +1.0466420754e+01 -1.6976546685e+03 1.7208394876e+03 2.0000000000e+02 0.0000e+00 1.0000e+00
      556  1    1    2    0    0 -1.9785758128e+02 -1.0466420754e+01 -1.1381707430e+03 1.1724716665e+03 2.0000000000e+02 0.0000e+00 -1.0000e+00
<mgrwt>
<rscale>  0 0.57388472E+03</rscale>
<asrwt>0</asrwt>
<pdfrwt beam="2">  1        2 0.44070303E+00 0.57388472E+03</pdfrwt>
<pdfrwt beam="1">  1       -2 0.44219780E-02 0.57388472E+03</pdfrwt>
<totfact> 0.56406334E+02</totfact>
</mgrwt>
</event>
<event>
 4      1 +1.5204000e-02 9.33447500e+02 7.81860800e-03 9.38471000e-02
       -2 -1    0    0    0  501 -0.0000000000e+00 +0.0000000000e+00 +3.0344756142e+02 3.0344756142e+02 0.0000000000e+00 0.0000e+00 1.0000e+00
        2 -1    0    0  501    0 +0.0000000000e+00 -0.0000000000e+00 -7.1785405918e+02 7.1785405918e+02 0.0000000000e+00 0.0000e+00 -1.0000e+00
     -556  1    1    2    0    0 +3.3024141112e+02 -1.3084802362e+02 +4.1454073757e+01 4.0975484760e+02 2.0000000000e+02 0.0000e+00 -1.0000e+00
      556  1    1    2    0    0 -3.3024141112e+02 +1.3084802362e+02 -4.5586057152e+02 6.1154677300e+02 2.0000000000e+02 0.0000e+00 1.0000e+00
<mgrwt>
<rscale>  0 0.93344751E+03</rscale>
<asrwt>0</asrwt>
<pdfrwt beam="2">  1        2 0.11043909E+00 0.93344751E+03</pdfrwt>
<pdfrwt beam="1">  1       -2 0.46684240E-01 0.93344751E+03</pdfrwt>
<totfact> 0.17285475E+02</totfact>
</mgrwt>
</event>
<event>
 4      1 +1.5204000e-02 6.07039000e+02 7.81860800e-03 9.89090900e-02
        4 -1    0    0  501    0 +0.0000000000e+00 +0.0000000000e+00 +3.6235035930e+02 3.6235035930e+02 0.0000000000e+00 0.0000e+00 -1.0000e+00
       -4 -1    0    0    0  501 -0.0000000000e+00 -0.0000000000e+00 -2.5424038056e+02 2.5424038056e+02 0.0000000000e+00 0.0000e+00 1.0000e+00
     -556  1    1    2    0    0 +1.8700516197e+02 +1.2695860100e+02 +8.6727509551e+01 3.1402400845e+02 2.0000000000e+02 0.0000e+00 -1.0000e+00
      556  1    1    2    0    0 -1.8700516197e+02 -1.2695860100e+02 +2.1382469193e+01 3.0256673141e+02 2.0000000000e+02 0.0000e+00 1.0000e+00
<mgrwt>
<rscale>  0 0.60703902E+03</rscale>
<asrwt>0</asrwt>
<pdfrwt beam="1">  1        4 0.55746209E-01 0.60703902E+03</pdfrwt>
<pdfrwt beam="2">  1       -4 0.39113905E-01 0.60703902E+03</pdfrwt>
<totfact> 0.38596325E+01</totfact>
</mgrwt>
</event>
<event>
 4      1 +1.5204000e-02 6.15700100e+02 7.81860800e-03 9.87335800e-02
       -2 -1    0    0    0  501 -0.0000000000e+00 +0.0000000000e+00 +8.3973051857e+01 8.3973051857e+01 0.0000000000e+00 0.0000e+00 -1.0000e+00
        2 -1    0    0  501    0 +0.0000000000e+00 -0.0000000000e+00 -1.1285958716e+03 1.1285958716e+03 0.0000000000e+00 0.0000e+00 1.0000e+00
     -556  1    1    2    0    0 +1.9889563735e+02 +1.1300074800e+02 -4.2496977799e+02 5.2242507196e+02 2.0000000000e+02 0.0000e+00 -1.0000e+00
      556  1    1    2    0    0 -1.9889563735e+02 -1.1300074800e+02 -6.1965304174e+02 6.9014385149e+02 2.0000000000e+02 0.0000e+00 1.0000e+00
<mgrwt>
<rscale>  0 0.61570006E+03</rscale>
<asrwt>0</asrwt>
<pdfrwt beam="2">  1        2 0.17363013E+00 0.61570006E+03</pdfrwt>
<pdfrwt beam="1">  1       -2 0.12918932E-01 0.61570006E+03</pdfrwt>
<totfact> 0.95158697E+02</totfact>
</mgrwt>
</event>
<event>
 4      1 +1.5204000e-02 5.10791300e+02 7.81860800e-03 1.01100000e-01
        2 -1    0    0  501    0 +0.0000000000e+00 +0.0000000000e+00 +5.1423578982e+02 5.1423578982e+02 0.0000000000e+00 0.0000e+00 -1.0000e+00
       -2 -1    0    0    0  501 -0.0000000000e+00 -0.0000000000e+00 -1.2684246785e+02 1.2684246785e+02 0.0000000000e+00 0.0000e+00 1.0000e+00
     -556  1    1    2    0    0 +2.2388252086e+01 +1.5423497782e+02 +2.3212051685e+02 3.4375804944e+02 2.0000000000e+02 0.0000e+00 -1.0000e+00
      556  1    1    2    0    0 -2.2388252086e+01 -1.5423497782e+02 +1.5527280512e+02 2.9732020823e+02 2.0000000000e+02 0.0000e+00 1.0000e+00
<mgrwt>
<rscale>  0 0.51079129E+03</rscale>
<asrwt>0</asrwt>
<pdfrwt beam="1">  1        2 0.79113197E-01 0.51079129E+03</pdfrwt>
<pdfrwt beam="2">  1       -2 0.19514226E-01 0.51079129E+03</pdfrwt>
<totfact> 0.13280115E+03</totfact>
</mgrwt>
</event>
<event>
 4      1 +1.5204000e-02 7.81518200e+02 7.81860800e-03 9.58716100e-02
        2 -1    0    0  501    0 +0.0000000000e+00 +0.0000000000e+00 +2.7096690559e+03 2.7096690559e+03 0.0000000000e+00 0.0000e+00 -1.0000e+00
       -2 -1    0    0    0  501 -0.0000000000e+00 -0.0000000000e+00 -5.6351044926e+01 5.6351044926e+01 0.0000000000e+00 0.0000e+00 1.0000e+00
     -556  1    1    2    0    0 +2.4709396835e+02 +2.2722866410e+02 +1.3340727153e+03 1.3901216870e+03 2.0000000000e+02 0.0000e+00 1.0000e+00
      556  1    1    2    0    0 -2.4709396835e+02 -2.2722866410e+02 +1.3192452957e+03 1.3758984139e+03 2.0000000000e+02 0.0000e+00 -1.0000e+00
<mgrwt>
<rscale>  0 0.78151822E+03</rscale>
<asrwt>0</asrwt>
<pdfrwt beam="1">  1        2 0.41687206E+00 0.78151822E+03</pdfrwt>
<pdfrwt beam="2">  1       -2 0.86693936E-02 0.78151822E+03</pdfrwt>
<totfact> 0.23605535E+02</totfact>
</mgrwt>
</event>
<event>
 4      1 +1.5204000e-02 4.95414600e+02 7.81860800e-03 1.01498300e-01
        2 -1    0    0  501    0 +0.0000000000e+00 +0.0000000000e+00 +1.1777834391e+03 1.1777834391e+03 0.0000000000e+00 0.0000e+00 -1.0000e+00
       -2 -1    0    0    0  501 -0.0000000000e+00 -0.0000000000e+00 -5.2096943017e+01 5.2096943017e+01 0.0000000000e+00 0.0000e+00 1.0000e+00
     -556  1    1    2    0    0 +2.7052301305e+01 -1.0774634032e+02 +3.2709703881e+02 3.9916609783e+02 2.0000000000e+02 0.0000e+00 1.0000e+00
      556  1    1    2    0    0 -2.7052301305e+01 +1.0774634032e+02 +7.9858945731e+02 8.3071428433e+02 2.0000000000e+02 0.0000e+00 -1.0000e+00
<mgrwt>
<rscale>  0 0.49541464E+03</rscale>
<asrwt>0</asrwt>
<pdfrwt beam="1">  1        2 0.18119743E+00 0.49541464E+03</pdfrwt>
<pdfrwt beam="2">  1       -2 0.80149152E-02 0.49541464E+03</pdfrwt>
<totfact> 0.19358212E+03</totfact>
</mgrwt>
</event>
<event>
 4      1 +1.5204000e-02 4.37547700e+02 7.81860800e-03 1.03150200e-01
       -1 -1    0    0    0  501 -0.0000000000e+00 +0.0000000000e+00 +3.4375906220e+01 3.4375906220e+01 0.0000000000e+00 0.0000e+00 1.0000e+00
        1 -1    0    0  501    0 +0.0000000000e+00 -0.0000000000e+00 -1.3923121037e+03 1.3923121037e+03 0.0000000000e+00 0.0000e+00 -1.0000e+00
     -556  1    1    2    0    0 +2.7857192694e+00 -8.4019031814e+01 -7.7090630870e+02 8.0085173081e+02 2.0000000000e+02 0.0000e+00 -1.0000e+00
      556  1    1    2    0    0 -2.7857192694e+00 +8.4019031814e+01 -5.8702988880e+02 6.2583627914e+02 2.0000000000e+02 0.0000e+00 1.0000e+00
<mgrwt>
<rscale>  0 0.43754767E+03</rscale>
<asrwt>0</asrwt>
<pdfrwt beam="2">  1        1 0.21420182E+00 0.43754767E+03</pdfrwt>
<pdfrwt beam="1">  1       -1 0.52886021E-02 0.43754767E+03</pdfrwt>
<totfact> 0.13584735E+03</totfact>
</mgrwt>
</event>
<event>
 4      1 +1.5204000e-02 5.60561500e+02 7.81860800e-03 9.99078500e-02
       -2 -1    0    0    0  501 -0.0000000000e+00 +0.0000000000e+00 +7.8794078030e+02 7.8794078030e+02 0.0000000000e+00 0.0000e+00 -1.0000e+00
        2 -1    0    0  501    0 +0.0000000000e+00 -0.0000000000e+00 -9.9699490219e+01 9.9699490219e+01 0.0000000000e+00 0.0000e+00 1.0000e+00
     -556  1    1    2    0    0 +7.4241691578e+01 +1.7144115850e+02 +4.3983168392e+02 5.1803070351e+02 2.0000000000e+02 0.0000e+00 1.0000e+00
      556  1    1    2    0    0 -7.4241691578e+01 -1.7144115850e+02 +2.4840960616e+02 3.6960956702e+02 2.0000000000e+02 0.0000e+00 -1.0000e+00
<mgrwt>
<rscale>  0 0.56056148E+03</rscale>
<asrwt>0</asrwt>
<pdfrwt beam="2">  1        2 0.15338384E-01 0.56056148E+03</pdfrwt>
<pdfrwt beam="1">  1       -2 0.12122165E+00 0.56056148E+03</pdfrwt>
<totfact> 0.20490990E+02</totfact>
</mgrwt>
</event>
<event>
 4      1 +1.5204000e-02 6.10589200e+02 7.81860800e-03 9.88367700e-02
        2 -1    0    0  501    0 +0.0000000000e+00 +0.0000000000e+00 +3.8774841326e+02 3.8774841326e+02 0.0000000000e+00 0.0000e+00 -1.0000e+00
       -2 -1    0    0    0  501 -0.0000000000e+00 -0.0000000000e+00 -2.4037442631e+02 2.4037442631e+02 0.0000000000e+00 0.0000e+00 1.0000e+00
     -556  1    1    2    0    0 -1.6868927645e+02 -1.5228311431e+02 +3.3074422679e+01 3.0453265232e+02 2.0000000000e+02 0.0000e+00 1.0000e+00
      556  1    1    2    0    0 +1.6868927645e+02 +1.5228311431e+02 +1.1429956427e+02 3.2359018725e+02 2.0000000000e+02 0.0000e+00 -1.0000e+00
<mgrwt>
<rscale>  0 0.61058923E+03</rscale>
<asrwt>0</asrwt>
<pdfrwt beam="1">  1        2 0.59653602E-01 0.61058923E+03</pdfrwt>
<pdfrwt beam="2">  1       -2 0.36980681E-01 0.61058923E+03</pdfrwt>
<totfact> 0.57159086E+02</totfact>
</mgrwt>
</event>
<event>
 4      1 +1.5204000e-02 5.64021000e+02 7.81860800e-03 9.98299700e-02
        2 -1    0    0  501    0 +0.0000000000e+00 +0.0000000000e+00 +5.7381419208e+01 5.7381419208e+01 0.0000000000e+00 0.0000e+00 1.0000e+00
       -2 -1    0    0    0  501 -0.0000000000e+00 -0.0000000000e+00 -1.3859875487e+03 1.3859875487e+03 0.0000000000e+00 0.0000e+00 -1.0000e+00
     -556  1    1    2    0    0 +9.9476576158e+01 +8.7696367823e+01 -2.8521780750e+02 3.7274044568e+02 2.0000000000e+02 0.0000e+00 1.0000e+00
      556  1    1    2    0    0 -9.9476576158e+01 -8.7696367823e+01 -1.0433883220e+03 1.0706285223e+03 2.0000000000e+02 0.0000e+00 -1.0000e+00
<mgrwt>
<rscale>  0 0.56402104E+03</rscale>
<asrwt>0</asrwt>
<pdfrwt beam="1">  1        2 0.88279110E-02 0.56402104E+03</pdfrwt>
<pdfrwt beam="2">  1       -2 0.21322885E+00 0.56402104E+03</pdfrwt>
<totfact> 0.87737433E+01</totfact>
</mgrwt>
</event>
<event>
 4      1 +1.5204000e-02 6.44526200e+02 7.81860800e-03 9.81710500e-02
        1 -1    0    0  501    0 +0.0000000000e+00 +0.0000000000e+00 +3.0385641987e+03 3.0385641987e+03 0.0000000000e+00 0.0000e+00 -1.0000e+00
       -1 -1    0    0    0  501 -0.0000000000e+00 -0.0000000000e+00 -3.4178476412e+01 3.4178476412e+01 0.0000000000e+00 0.0000e+00 1.0000e+00
     -556  1    1    2    0    0 -6.6664109316e+00 -4.9786474911e+01 +3.2153680833e+02 3.8198043567e+02 2.0000000000e+02 0.0000e+00 1.0000e+00
      556  1    1    2    0    0 +6.6664109316e+00 +4.9786474911e+01 +2.6828489140e+03 2.6907622395e+03 2.0000000000e+02 0.0000e+00 -1.0000e+00
<mgrwt>
<rscale>  0 0.64452617E+03</rscale>
<asrwt>0</asrwt>
<pdfrwt beam="1">  1        1 0.46747120E+00 0.64452617E+03</pdfrwt>
<pdfrwt beam="2">  1       -1 0.52582295E-02 0.64452617E+03</pdfrwt>
<totfact> 0.10327551E+02</totfact>
</mgrwt>
</event>
<event>
 4      1 +1.5204000e-02 4.48227000e+02 7.81860800e-03 1.02825200e-01
       -2 -1    0    0    0  501 -0.0000000000e+00 +0.0000000000e+00 +1.5658401202e+02 1.5658401202e+02 0.0000000000e+00 0.0000e+00 1.0000e+00
        2 -1    0    0  501    0 +0.0000000000e+00 -0.0000000000e+00 -3.2076625901e+02 3.2076625901e+02 0.0000000000e+00 0.0000e+00 -1.0000e+00
     -556  1    1    2    0    0 +5.3990203163e+01 -8.4169313853e+01 -6.6029689444e+01 2.3315088531e+02 2.0000000000e+02 0.0000e+00 -1.0000e+00
      556  1    1    2    0    0 -5.3990203163e+01 +8.4169313853e+01 -9.8152557547e+01 2.4419938572e+02 2.0000000000e+02 0.0000e+00 1.0000e+00
<mgrwt>
<rscale>  0 0.44822703E+03</rscale>
<asrwt>0</asrwt>
<pdfrwt beam="2">  1        2 0.49348654E-01 0.44822703E+03</pdfrwt>
<pdfrwt beam="1">  1       -2 0.24089848E-01 0.44822703E+03</pdfrwt>
<totfact> 0.15540013E+03</totfact>
</mgrwt>
</event>
<event>
 4      1 +1.5204000e-02 7.12380000e+02 7.81860800e-03 9.69629200e-02
       -1 -1    0    0    0  501 -0.0000000000e+00 +0.0000000000e+00 +2.7004316216e+02 2.7004316216e+02 0.0000000000e+00 0.0000e+00 1.0000e+00
        1 -1    0    0  501    0 +0.0000000000e+00 -0.0000000000e+00 -4.6981863448e+02 4.6981863448e+02 0.0000000000e+00 0.0000e+00 -1.0000e+00
     -556  1    1    2    0    0 -2.7026908663e+02 -1.1027264350e+02 -1.4227740745e+02 3.8137684220e+02 2.0000000000e+02 0.0000e+00 1.0000e+00
      556  1    1    2    0    0 +2.7026908663e+02 +1.1027264350e+02 -5.7498064883e+01 3.5848495444e+02 2.0000000000e+02 0.0000e+00 -1.0000e+00
<mgrwt>
<rscale>  0 0.71237998E+03</rscale>
<asrwt>0</asrwt>
<pdfrwt beam="2">  1        1 0.72279789E-01 0.71237998E+03</pdfrwt>
<pdfrwt beam="1">  1       -1 0.41545102E-01 0.71237998E+03</pdfrwt>
<totfact> 0.27778367E+02</totfact>
</mgrwt>
</event>
<event>
 4      1 +1.5204000e-02 4.14284200e+02 7.81860800e-03 1.03894300e-01
        2 -1    0    0  501    0 +0.0000000000e+00 +0.0000000000e+00 +1.6732431221e+03 1.6732431221e+03 0.0000000000e+00 0.0000e+00 -1.0000e+00
       -2 -1    0    0    0  501 -0.0000000000e+00 -0.0000000000e+00 -2.5643519059e+01 2.5643519059e+01 0.0000000000e+00 0.0000e+00 1.0000e+00
     -556  1    1    2    0    0 -1.5720310938e+01 +1.6484419231e+01 +6.2336546991e+02 6.5505982424e+02 2.0000000000e+02 0.0000e+00 1.0000e+00
      556  1    1    2    0    0 +1.5720310938e+01 -1.6484419231e+01 +1.0242341331e+03 1.0438268169e+03 2.0000000000e+02 0.0000e+00 -1.0000e+00
<mgrwt>
<rscale>  0 0.41428416E+03</rscale>
<asrwt>0</asrwt>
<pdfrwt beam="1">  1        2 0.25742193E+00 0.41428416E+03</pdfrwt>
<pdfrwt beam="2">  1       -2 0.39451581E-02 0.41428416E+03</pdfrwt>
<totfact> 0.30912885E+03</totfact>
</mgrwt>
</event>
<event>
 4      1 +1.5204000e-02 8.60326800e+02 7.81860800e-03 9.47658100e-02
        2 -1    0    0  501    0 +0.0000000000e+00 +0.0000000000e+00 +1.3081953658e+03 1.3081953658e+03 0.0000000000e+00 0.0000e+00 -1.0000e+00
       -2 -1    0    0    0  501 -0.0000000000e+00 -0.0000000000e+00 -1.4144719204e+02 1.4144719204e+02 0.0000000000e+00 0.0000e+00 1.0000e+00
     -556  1    1    2    0    0 -1.3570682051e+00 +3.2542462254e+02 +2.5002889278e+02 4.5652762656e+02 2.0000000000e+02 0.0000e+00 1.0000e+00
      556  1    1    2    0    0 +1.3570682051e+00 -3.2542462254e+02 +9.1671928097e+02 9.9311493126e+02 2.0000000000e+02 0.0000e+00 -1.0000e+00
<mgrwt>
<rscale>  0 0.86032682E+03</rscale>
<asrwt>0</asrwt>
<pdfrwt beam="1">  1        2 0.20126082E+00 0.86032682E+03</pdfrwt>
<pdfrwt beam="2">  1       -2 0.21761107E-01 0.86032682E+03</pdfrwt>
<totfact> 0.30190803E+02</totfact>
</mgrwt>
</event>
<event>
 4      1 +1.5204000e-02 1.52848600e+03 7.81860800e-03 8.86572800e-02
        2 -1    0    0  501    0 +0.0000000000e+00 +0.0000000000e+00 +1.2319534996e+03 1.2319534996e+03 0.0000000000e+00 0.0000e+00 -1.0000e+00
       -2 -1    0    0    0  501 -0.0000000000e+00 -0.0000000000e+00 -4.7409871197e+02 4.7409871197e+02 0.0000000000e+00 0.0000e+00 1.0000e+00
     -556  1    1    2    0    0 +4.9690986813e+02 +3.1362675540e+02 -1.1872273485e+02 6.3196221922e+02 2.0000000000e+02 0.0000e+00 1.0000e+00
      556  1    1    2    0    0 -4.9690986813e+02 -3.1362675540e+02 +8.7657752250e+02 1.0740899924e+03 2.0000000000e+02 0.0000e+00 -1.0000e+00
<mgrwt>
<rscale>  0 0.15284863E+04</rscale>
<asrwt>0</asrwt>
<pdfrwt beam="1">  1        2 0.18953131E+00 0.15284863E+04</pdfrwt>
<pdfrwt beam="2">  1       -2 0.72938264E-01 0.15284863E+04</pdfrwt>
<totfact> 0.29687086E+01</totfact>
</mgrwt>
</event>
<event>
 4      1 +1.5204000e-02 5.38624700e+02 7.81860800e-03 1.00416200e-01
        2 -1    0    0  501    0 +0.0000000000e+00 +0.0000000000e+00 +4.9240613535e+02 4.9240613535e+02 0.0000000000e+00 0.0000e+00 -1.0000e+00
       -2 -1    0    0    0  501 -0.0000000000e+00 -0.0000000000e+00 -1.4729536720e+02 1.4729536720e+02 0.0000000000e+00 0.0000e+00 1.0000e+00
     -556  1    1    2    0    0 -1.7621745799e+02 +3.7827659936e+01 +1.6453380300e+02 3.1552321101e+02 2.0000000000e+02 0.0000e+00 -1.0000e+00
      556  1    1    2    0    0 +1.7621745799e+02 -3.7827659936e+01 +1.8057696515e+02 3.2417829153e+02 2.0000000000e+02 0.0000e+00 1.0000e+00
<mgrwt>
<rscale>  0 0.53862470E+03</rscale>
<asrwt>0</asrwt>
<pdfrwt beam="1">  1        2 0.75754789E-01 0.53862470E+03</pdfrwt>
<pdfrwt beam="2">  1       -2 0.22660826E-01 0.53862470E+03</pdfrwt>
<totfact> 0.10745412E+03</totfact>
</mgrwt>
</event>
<event>
 4      1 +1.5204000e-02 5.92623500e+02 7.81860800e-03 9.92082900e-02
       -1 -1    0    0    0  501 -0.0000000000e+00 +0.0000000000e+00 +1.1216028741e+02 1.1216028741e+02 0.0000000000e+00 0.0000e+00 1.0000e+00
        1 -1    0    0  501    0 +0.0000000000e+00 -0.0000000000e+00 -7.8281401015e+02 7.8281401015e+02 0.0000000000e+00 0.0000e+00 -1.0000e+00
     -556  1    1    2    0    0 +1.2886544187e+02 -6.9878456459e+01 -5.8029140501e+02 6.3105262499e+02 2.0000000000e+02 0.0000e+00 -1.0000e+00
      556  1    1    2    0    0 -1.2886544187e+02 +6.9878456459e+01 -9.0362317731e+01 2.6392167257e+02 2.0000000000e+02 0.0000e+00 1.0000e+00
<mgrwt>
<rscale>  0 0.59262347E+03</rscale>
<asrwt>0</asrwt>
<pdfrwt beam="2">  1        1 0.12043293E+00 0.59262347E+03</pdfrwt>
<pdfrwt beam="1">  1       -1 0.17255429E-01 0.59262347E+03</pdfrwt>
<totfact> 0.60495711E+02</totfact>
</mgrwt>
</event>
<event>
 4      1 +1.5204000e-02 7.94115400e+02 7.81860800e-03 9.56857400e-02
        1 -1    0    0  501    0 +0.0000000000e+00 +0.0000000000e+00 +4.4740310152e+02 4.4740310152e+02 0.0000000000e+00 0.0000e+00 -1.0000e+00
       -1 -1    0    0    0  501 -0.0000000000e+00 -0.0000000000e+00 -3.5237756944e+02 3.5237756944e+02 0.0000000000e+00 0.0000e+00 1.0000e+00
     -556  1    1    2    0    0 +1.7275727897e+01 +3.3890393632e+02 -2.8488582256e+00 3.9390664481e+02 2.0000000000e+02 0.0000e+00 1.0000e+00
      556  1    1    2    0    0 -1.7275727897e+01 -3.3890393632e+02 +9.7874390312e+01 4.0587402616e+02 2.0000000000e+02 0.0000e+00 -1.0000e+00
<mgrwt>
<rscale>  0 0.79411540E+03</rscale>
<asrwt>0</asrwt>
<pdfrwt beam="1">  1        1 0.68831246E-01 0.79411540E+03</pdfrwt>
<pdfrwt beam="2">  1       -1 0.54211934E-01 0.79411540E+03</pdfrwt>
<totfact> 0.17944890E+02</totfact>
</mgrwt>
</event>
<event>
 4      1 +1.5204000e-02 4.67036400e+02 7.81860800e-03 1.02276000e-01
       -2 -1    0    0    0  501 -0.0000000000e+00 +0.0000000000e+00 +3.6668263658e+01 3.6668263658e+01 0.0000000000e+00 0.0000e+00 1.0000e+00
        2 -1    0    0  501    0 +0.0000000000e+00 -0.0000000000e+00 -1.4871377249e+03 1.4871377249e+03 0.0000000000e+00 0.0000e+00 -1.0000e+00
     -556  1    1    2    0    0 +5.3848388713e+01 -1.0542371252e+02 -7.9941752859e+02 8.3251558133e+02 2.0000000000e+02 0.0000e+00 -1.0000e+00
      556  1    1    2    0    0 -5.3848388713e+01 +1.0542371252e+02 -6.5105193269e+02 6.9129040727e+02 2.0000000000e+02 0.0000e+00 1.0000e+00
<mgrwt>
<rscale>  0 0.46703644E+03</rscale>
<asrwt>0</asrwt>
<pdfrwt beam="2">  1        2 0.22879038E+00 0.46703644E+03</pdfrwt>
<pdfrwt beam="1">  1       -2 0.56412724E-02 0.46703644E+03</pdfrwt>
<totfact> 0.22479357E+03</totfact>
</mgrwt>
</event>
<event>
 4      1 +1.5204000e-02 4.30197600e+02 7.81860800e-03 1.03379800e-01
       -2 -1    0    0    0  501 -0.0000000000e+00 +0.0000000000e+00 +4.3566854536e+01 4.3566854536e+01 0.0000000000e+00 0.0000e+00 1.0000e+00
        2 -1    0    0  501    0 +0.0000000000e+00 -0.0000000000e+00 -1.0619884449e+03 1.0619884449e+03 0.0000000000e+00 0.0000e+00 -1.0000e+00
     -556  1    1    2    0    0 -4.1847901927e+01 +3.5681946910e+01 -3.6286199849e+02 4.1796324980e+02 2.0000000000e+02 0.0000e+00 1.0000e+00
      556  1    1    2    0    0 +4.1847901927e+01 -3.5681946910e+01 -6.5555959185e+02 6.8759204962e+02 2.0000000000e+02 0.0000e+00 -1.0000e+00
<mgrwt>
<rscale>  0 0.43019761E+03</rscale>
<asrwt>0</asrwt>
<pdfrwt beam="2">  1        2 0.16338282E+00 0.43019761E+03</pdfrwt>
<pdfrwt beam="1">  1       -2 0.67025938E-02 0.43019761E+03</pdfrwt>
<totfact> 0.30097630E+03</totfact>
</mgrwt>
</event>
<event>
 4      1 +1.5204000e-02 4.47719900e+02 7.81860800e-03 1.02840400e-01
        2 -1    0    0  501    0 +0.0000000000e+00 +0.0000000000e+00 +5.3818558489e+02 5.3818558489e+02 0.0000000000e+00 0.0000e+00 -1.0000e+00
       -2 -1    0    0    0  501 -0.0000000000e+00 -0.0000000000e+00 -9.3115240949e+01 9.3115240949e+01 0.0000000000e+00 0.0000e+00 1.0000e+00
     -556  1    1    2    0    0 -8.0187023668e+01 +5.8108756577e+01 +2.4722867055e+02 3.3305945700e+02 2.0000000000e+02 0.0000e+00 1.0000e+00
      556  1    1    2    0    0 +8.0187023668e+01 -5.8108756577e+01 +1.9784167339e+02 2.9824136884e+02 2.0000000000e+02 0.0000e+00 -1.0000e+00
<mgrwt>
<rscale>  0 0.44771991E+03</rscale>
<asrwt>0</asrwt>
<pdfrwt beam="1">  1        2 0.82797780E-01 0.44771991E+03</pdfrwt>
<pdfrwt beam="2">  1       -2 0.14325422E-01 0.44771991E+03</pdfrwt>
<totfact> 0.21278334E+03</totfact>
</mgrwt>
</event>
<event>
 4      1 +1.5204000e-02 5.03778400e+02 7.81860800e-03 1.01279700e-01
        2 -1    0    0  501    0 +0.0000000000e+00 +0.0000000000e+00 +1.4256312686e+03 1.4256312686e+03 0.0000000000e+00 0.0000e+00 -1.0000e+00
       -2 -1    0    0    0  501 -0.0000000000e+00 -0.0000000000e+00 -4.4505308605e+01 4.4505308605e+01 0.0000000000e+00 0.0000e+00 1.0000e+00
     -556  1    1    2    0    0 -3.3618706981e-01 +1.2999550871e+02 +9.2672647762e+02 9.5693307479e+02 2.0000000000e+02 0.0000e+00 -1.0000e+00
      556  1    1    2    0    0 +3.3618706981e-01 -1.2999550871e+02 +4.5439948237e+02 5.1320350241e+02 2.0000000000e+02 0.0000e+00 1.0000e+00
<mgrwt>
<rscale>  0 0.50377836E+03</rscale>
<asrwt>0</asrwt>
<pdfrwt beam="1">  1        2 0.21932785E+00 0.50377836E+03</pdfrwt>
<pdfrwt beam="2">  1       -2 0.68469716E-02 0.50377836E+03</pdfrwt>
<totfact> 0.17941358E+03</totfact>
</mgrwt>
</event>
<event>
 4      1 +1.5204000e-02 5.76784400e+02 7.81860800e-03 9.95477700e-02
       -2 -1    0    0    0  501 -0.0000000000e+00 +0.0000000000e+00 +1.1892367333e+02 1.1892367333e+02 0.0000000000e+00 0.0000e+00 1.0000e+00
        2 -1    0    0  501    0 +0.0000000000e+00 -0.0000000000e+00 -6.9935671033e+02 6.9935671033e+02 0.0000000000e+00 0.0000e+00 -1.0000e+00
     -556  1    1    2    0    0 +1.1230953842e+02 -1.7576675807e+01 -5.3695379729e+02 5.8415901292e+02 2.0000000000e+02 0.0000e+00 -1.0000e+00
      556  1    1    2    0    0 -1.1230953842e+02 +1.7576675807e+01 -4.3479239704e+01 2.3412137074e+02 2.0000000000e+02 0.0000e+00 1.0000e+00
<mgrwt>
<rscale>  0 0.57678443E+03</rscale>
<asrwt>0</asrwt>
<pdfrwt beam="2">  1        2 0.10759334E+00 0.57678443E+03</pdfrwt>
<pdfrwt beam="1">  1       -2 0.18295950E-01 0.57678443E+03</pdfrwt>
<totfact> 0.10268290E+03</totfact>
</mgrwt>
</event>
<event>
 4      1 +1.5204000e-02 5.59645000e+02 7.81860800e-03 9.99285800e-02
        1 -1    0    0  501    0 +0.0000000000e+00 +0.0000000000e+00 +1.6497402050e+02 1.6497402050e+02 0.0000000000e+00 0.0000e+00 -1.0000e+00
       -1 -1    0    0    0  501 -0.0000000000e+00 -0.0000000000e+00 -4.7462405081e+02 4.7462405081e+02 0.0000000000e+00 0.0000e+00 1.0000e+00
     -556  1    1    2    0    0 +9.8460257502e+01 -1.8271181240e+01 -3.4699063042e+02 4.1283260042e+02 2.0000000000e+02 0.0000e+00 1.0000e+00
      556  1    1    2    0    0 -9.8460257502e+01 +1.8271181240e+01 +3.7340600114e+01 2.2676547089e+02 2.0000000000e+02 0.0000e+00 -1.0000e+00
<mgrwt>
<rscale>  0 0.55964502E+03</rscale>
<asrwt>0</asrwt>
<pdfrwt beam="1">  1        1 0.25380619E-01 0.55964502E+03</pdfrwt>
<pdfrwt beam="2">  1       -1 0.73019084E-01 0.55964502E+03</pdfrwt>
<totfact> 0.36715936E+02</totfact>
</mgrwt>
</event>
<event>
 4      1 +1.5204000e-02 5.43055400e+02 7.81860800e-03 1.00311400e-01
        1 -1    0    0  501    0 +0.0000000000e+00 +0.0000000000e+00 +4.0945154993e+02 4.0945154993e+02 0.0000000000e+00 0.0000e+00 -1.0000e+00
       -1 -1    0    0    0  501 -0.0000000000e+00 -0.0000000000e+00 -1.8006350530e+02 1.8006350530e+02 0.0000000000e+00 0.0000e+00 1.0000e+00
     -556  1    1    2    0    0 +1.2661526991e+02 -5.6253389916e+00 -2.9583245246e+01 2.3861734935e+02 2.0000000000e+02 0.0000e+00 1.0000e+00
      556  1    1    2    0    0 -1.2661526991e+02 +5.6253389916e+00 +2.5897128987e+02 3.5089770588e+02 2.0000000000e+02 0.0000e+00 -1.0000e+00
<mgrwt>
<rscale>  0 0.54305536E+03</rscale>
<asrwt>0</asrwt>
<pdfrwt beam="1">  1        1 0.62992546E-01 0.54305536E+03</pdfrwt>
<pdfrwt beam="2">  1       -1 0.27702078E-01 0.54305536E+03</pdfrwt>
<totfact> 0.68734302E+02</totfact>
</mgrwt>
</event>
<event>
 4      1 +1.5204000e-02 4.81453800e+02 7.81860800e-03 1.01873600e-01
       -2 -1    0    0    0  501 -0.0000000000e+00 +0.0000000000e+00 +2.0209805834e+01 2.0209805834e+01 0.0000000000e+00 0.0000e+00 1.0000e+00
        2 -1    0    0  501    0 +0.0000000000e+00 -0.0000000000e+00 -2.8673920489e+03 2.8673920489e+03 0.0000000000e+00 0.0000e+00 -1.0000e+00
     -556  1    1    2    0    0 -1.8371920921e+01 -8.5686535396e+01 -8.1578908433e+02 8.4450668437e+02 2.0000000000e+02 0.0000e+00 1.0000e+00
      556  1    1    2    0    0 +1.8371920921e+01 +8.5686535396e+01 -2.0313931588e+03 2.0430951704e+03 2.0000000000e+02 0.0000e+00 -1.0000e+00
<mgrwt>
<rscale>  0 0.48145378E+03</rscale>
<asrwt>0</asrwt>
<pdfrwt beam="2">  1        2 0.44113762E+00 0.48145378E+03</pdfrwt>
<pdfrwt beam="1">  1       -2 0.31091982E-02 0.48145378E+03</pdfrwt>
<totfact> 0.97180578E+02</totfact>
</mgrwt>
</event>
<event>
 4      1 +1.5204000e-02 4.40852900e+02 7.81860800e-03 1.03048500e-01
        2 -1    0    0  501    0 +0.0000000000e+00 +0.0000000000e+00 +1.5688596902e+02 1.5688596902e+02 0.0000000000e+00 0.0000e+00 1.0000e+00
       -2 -1    0    0    0  501 -0.0000000000e+00 -0.0000000000e+00 -3.0970150615e+02 3.0970150615e+02 0.0000000000e+00 0.0000e+00 -1.0000e+00
     -556  1    1    2    0    0 -2.7382721535e+01 -7.8121226897e+01 -1.2049362613e+02 2.4773262496e+02 2.0000000000e+02 0.0000e+00 -1.0000e+00
      556  1    1    2    0    0 +2.7382721535e+01 +7.8121226897e+01 -3.2321910996e+01 2.1885485021e+02 2.0000000000e+02 0.0000e+00 1.0000e+00
<mgrwt>
<rscale>  0 0.44085290E+03</rscale>
<asrwt>0</asrwt>
<pdfrwt beam="1">  1        2 0.24136303E-01 0.44085290E+03</pdfrwt>
<pdfrwt beam="2">  1       -2 0.47646385E-01 0.44085290E+03</pdfrwt>
<totfact> 0.95381086E+02</totfact>
</mgrwt>
</event>
<event>
 4      1 +1.5204000e-02 6.89232300e+02 7.81860800e-03 9.73582600e-02
        2 -1    0    0  501    0 +0.0000000000e+00 +0.0000000000e+00 +4.8709777762e+02 4.8709777762e+02 0.0000000000e+00 0.0000e+00 -1.0000e+00
       -2 -1    0    0    0  501 -0.0000000000e+00 -0.0000000000e+00 -2.4381205004e+02 2.4381205004e+02 0.0000000000e+00 0.0000e+00 1.0000e+00
     -556  1    1    2    0    0 -1.9771216365e+02 +1.8965440279e+02 +5.7124688996e+01 3.4397982825e+02 2.0000000000e+02 0.0000e+00 1.0000e+00
      556  1    1    2    0    0 +1.9771216365e+02 -1.8965440279e+02 +1.8616103859e+02 3.8692999941e+02 2.0000000000e+02 0.0000e+00 -1.0000e+00
<mgrwt>
<rscale>  0 0.68923235E+03</rscale>
<asrwt>0</asrwt>
<pdfrwt beam="1">  1        2 0.74938120E-01 0.68923235E+03</pdfrwt>
<pdfrwt beam="2">  1       -2 0.37509546E-01 0.68923235E+03</pdfrwt>
<totfact> 0.42879965E+02</totfact>
</mgrwt>
</event>
<event>
 4      1 +1.5204000e-02 5.04749300e+02 7.81860800e-03 1.01254700e-01
        2 -1    0    0  501    0 +0.0000000000e+00 +0.0000000000e+00 +1.0363836719e+02 1.0363836719e+02 0.0000000000e+00 0.0000e+00 -1.0000e+00
       -2 -1    0    0    0  501 -0.0000000000e+00 -0.0000000000e+00 -6.1456944477e+02 6.1456944477e+02 0.0000000000e+00 0.0000e+00 1.0000e+00
     -556  1    1    2    0    0 -9.5513926831e+01 -6.2230216380e+01 -1.0829706798e+02 2.5440865744e+02 2.0000000000e+02 0.0000e+00 -1.0000e+00
      556  1    1    2    0    0 +9.5513926831e+01 +6.2230216380e+01 -4.0263400960e+02 4.6379915452e+02 2.0000000000e+02 0.0000e+00 1.0000e+00
<mgrwt>
<rscale>  0 0.50474934E+03</rscale>
<asrwt>0</asrwt>
<pdfrwt beam="1">  1        2 0.15944364E-01 0.50474934E+03</pdfrwt>
<pdfrwt beam="2">  1       -2 0.94549148E-01 0.50474934E+03</pdfrwt>
<totfact> 0.35484434E+02</totfact>
</mgrwt>
</event>
<event>
 4      1 +1.5204000e-02 7.22530800e+02 7.81860800e-03 9.67945900e-02
        2 -1    0    0  501    0 +0.0000000000e+00 +0.0000000000e+00 +6.6521385496e+02 6.6521385496e+02 0.0000000000e+00 0.0000e+00 -1.0000e+00
       -2 -1    0    0    0  501 -0.0000000000e+00 -0.0000000000e+00 -1.9619657034e+02 1.9619657034e+02 0.0000000000e+00 0.0000e+00 1.0000e+00
     -556  1    1    2    0    0 +1.2114580440e+02 +1.6237896580e+02 +4.9967735906e+02 5.7508320930e+02 2.0000000000e+02 0.0000e+00 -1.0000e+00
      556  1    1    2    0    0 -1.2114580440e+02 -1.6237896580e+02 -3.0660074439e+01 2.8632721600e+02 2.0000000000e+02 0.0000e+00 1.0000e+00
<mgrwt>
<rscale>  0 0.72253077E+03</rscale>
<asrwt>0</asrwt>
<pdfrwt beam="1">  1        2 0.10234059E+00 0.72253077E+03</pdfrwt>
<pdfrwt beam="2">  1       -2 0.30184088E-01 0.72253077E+03</pdfrwt>
<totfact> 0.44547306E+02</totfact>
</mgrwt>
</event>
<event>
 4      1 +1.5204000e-02 5.11366100e+02 7.81860800e-03 1.01085400e-01
        2 -1    0    0  501    0 +0.0000000000e+00 +0.0000000000e+00 +2.4513267157e+02 2.4513267157e+02 0.0000000000e+00 0.0000e+00 -1.0000e+00
       -2 -1    0    0    0  501 -0.0000000000e+00 -0.0000000000e+00 -2.6668755348e+02 2.6668755348e+02 0.0000000000e+00 0.0000e+00 1.0000e+00
     -556  1    1    2    0    0 +9.5206155324e+01 +4.8431625871e+01 -1.2905173509e+02 2.6089113578e+02 2.0000000000e+02 0.0000e+00 1.0000e+00
      556  1    1    2    0    0 -9.5206155324e+01 -4.8431625871e+01 +1.0749685319e+02 2.5092908927e+02 2.0000000000e+02 0.0000e+00 -1.0000e+00
<mgrwt>
<rscale>  0 0.51136614E+03</rscale>
<asrwt>0</asrwt>
<pdfrwt beam="1">  1        2 0.37712719E-01 0.51136614E+03</pdfrwt>
<pdfrwt beam="2">  1       -2 0.41028854E-01 0.51136614E+03</pdfrwt>
<totfact> 0.77739486E+02</totfact>
</mgrwt>
</event>
<event>
 4      1 +1.5204000e-02 4.51828900e+02 7.81860800e-03 1.02717800e-01
        2 -1    0    0  501    0 +0.0000000000e+00 +0.0000000000e+00 +1.9873876867e+03 1.9873876867e+03 0.0000000000e+00 0.0000e+00 -1.0000e+00
       -2 -1    0    0    0  501 -0.0000000000e+00 -0.0000000000e+00 -2.5680614046e+01 2.5680614046e+01 0.0000000000e+00 0.0000e+00 1.0000e+00
     -556  1    1    2    0    0 -9.2103631854e+01 +9.5878843839e+00 +1.2019376870e+03 1.2219775816e+03 2.0000000000e+02 0.0000e+00 -1.0000e+00
      556  1    1    2    0    0 +9.2103631854e+01 -9.5878843839e+00 +7.5976938566e+02 7.9109071914e+02 2.0000000000e+02 0.0000e+00 1.0000e+00
<mgrwt>
<rscale>  0 0.45182889E+03</rscale>
<asrwt>0</asrwt>
<pdfrwt beam="1">  1        2 0.30575183E+00 0.45182889E+03</pdfrwt>
<pdfrwt beam="2">  1       -2 0.39508653E-02 0.45182889E+03</pdfrwt>
<totfact> 0.20917153E+03</totfact>
</mgrwt>
</event>
<event>
 4      1 +1.5204000e-02 5.75491300e+02 7.81860800e-03 9.95760000e-02
       -2 -1    0    0    0  501 -0.0000000000e+00 +0.0000000000e+00 +5.4676847650e+01 5.4676847650e+01 0.0000000000e+00 0.0000e+00 1.0000e+00
        2 -1    0    0  501    0 +0.0000000000e+00 -0.0000000000e+00 -1.5143074525e+03 1.5143074525e+03 0.0000000000e+00 0.0000e+00 -1.0000e+00
     -556  1    1    2    0    0 -1.0737710788e+02 +1.3234932989e+01 -1.2105528206e+03 1.2317236452e+03 2.0000000000e+02 0.0000e+00 -1.0000e+00
      556  1    1    2    0    0 +1.0737710788e+02 -1.3234932989e+01 -2.4907778422e+02 3.3726065490e+02 2.0000000000e+02 0.0000e+00 1.0000e+00
<mgrwt>
<rscale>  0 0.57549130E+03</rscale>
<asrwt>0</asrwt>
<pdfrwt beam="2">  1        2 0.23297036E+00 0.57549130E+03</pdfrwt>
<pdfrwt beam="1">  1       -2 0.84118234E-02 0.57549130E+03</pdfrwt>
<totfact> 0.11533789E+03</totfact>
</mgrwt>
</event>
<event>
 4      1 +1.5204000e-02 5.46528000e+02 7.81860800e-03 1.00230100e-01
        2 -1    0    0  501    0 +0.0000000000e+00 +0.0000000000e+00 +2.3288960860e+03 2.3288960860e+03 0.0000000000e+00 0.0000e+00 -1.0000e+00
       -2 -1    0    0    0  501 -0.0000000000e+00 -0.0000000000e+00 -3.2063776636e+01 3.2063776636e+01 0.0000000000e+00 0.0000e+00 1.0000e+00
     -556  1    1    2    0    0 -9.9940606924e+01 +3.8564936160e+01 +4.9045561728e+02 5.4039068435e+02 2.0000000000e+02 0.0000e+00 1.0000e+00
      556  1    1    2    0    0 +9.9940606924e+01 -3.8564936160e+01 +1.8063766921e+03 1.8205691783e+03 2.0000000000e+02 0.0000e+00 -1.0000e+00
<mgrwt>
<rscale>  0 0.54652796E+03</rscale>
<asrwt>0</asrwt>
<pdfrwt beam="1">  1        2 0.35829157E+00 0.54652796E+03</pdfrwt>
<pdfrwt beam="2">  1       -2 0.49328905E-02 0.54652796E+03</pdfrwt>
<totfact> 0.96457605E+02</totfact>
</mgrwt>
</event>
<event>
 4      1 +1.5204000e-02 5.34792200e+02 7.81860800e-03 1.00507700e-01
       -1 -1    0    0    0  501 -0.0000000000e+00 +0.0000000000e+00 +5.8147444637e+01 5.8147444637e+01 0.0000000000e+00 0.0000e+00 1.0000e+00
        1 -1    0    0  501    0 +0.0000000000e+00 -0.0000000000e+00 -1.2296444694e+03 1.2296444694e+03 0.0000000000e+00 0.0000e+00 -1.0000e+00
     -556  1    1    2    0    0 -8.7964696137e+01 +2.1451452453e+01 -2.1815823751e+02 3.0950116183e+02 2.0000000000e+02 0.0000e+00 1.0000e+00
      556  1    1    2    0    0 +8.7964696137e+01 -2.1451452453e+01 -9.5333878721e+02 9.7829075217e+02 2.0000000000e+02 0.0000e+00 -1.0000e+00
<mgrwt>
<rscale>  0 0.53479224E+03</rscale>
<asrwt>0</asrwt>
<pdfrwt beam="2">  1        1 0.18917607E+00 0.53479224E+03</pdfrwt>
<pdfrwt beam="1">  1       -1 0.89457607E-02 0.53479224E+03</pdfrwt>
<totfact> 0.78085048E+02</totfact>
</mgrwt>
</event>
<event>
 4      1 +1.5204000e-02 8.22338300e+02 7.81860800e-03 9.52823500e-02
       -3 -1    0    0    0  501 -0.0000000000e+00 +0.0000000000e+00 +2.5677677361e+02 2.5677677361e+02 0.0000000000e+00 0.0000e+00 1.0000e+00
        3 -1    0    0  501    0 +0.0000000000e+00 -0.0000000000e+00 -6.5839319018e+02 6.5839319018e+02 0.0000000000e+00 0.0000e+00 -1.0000e+00
     -556  1    1    2    0    0 +2.1345476134e+02 -2.7277223980e+02 -9.4689569638e+01 4.1101550402e+02 2.0000000000e+02 0.0000e+00 -1.0000e+00
      556  1    1    2    0    0 -2.1345476134e+02 +2.7277223980e+02 -3.0692684693e+02 5.0415445978e+02 2.0000000000e+02 0.0000e+00 1.0000e+00
<mgrwt>
<rscale>  0 0.82233832E+03</rscale>
<asrwt>0</asrwt>
<pdfrwt beam="2">  1        3 0.10129126E+00 0.82233832E+03</pdfrwt>
<pdfrwt beam="1">  1       -3 0.39504119E-01 0.82233832E+03</pdfrwt>
<totfact> 0.14244501E+01</totfact>
</mgrwt>
</event>
<event>
 4      1 +1.5204000e-02 5.03889700e+02 7.81860800e-03 1.01276900e-01
        1 -1    0    0  501    0 +0.0000000000e+00 +0.0000000000e+00 +6.3596203282e+02 6.3596203282e+02 0.0000000000e+00 0.0000e+00 -1.0000e+00
       -1 -1    0    0    0  501 -0.0000000000e+00 -0.0000000000e+00 -9.9811304378e+01 9.9811304378e+01 0.0000000000e+00 0.0000e+00 1.0000e+00
     -556  1    1    2    0    0 +6.6803951879e+01 +1.0294968126e+02 +1.3412917427e+02 2.7028140937e+02 2.0000000000e+02 0.0000e+00 1.0000e+00
      556  1    1    2    0    0 -6.6803951879e+01 -1.0294968126e+02 +4.0202155417e+02 4.6549192783e+02 2.0000000000e+02 0.0000e+00 -1.0000e+00
<mgrwt>
<rscale>  0 0.50388967E+03</rscale>
<asrwt>0</asrwt>
<pdfrwt beam="1">  1        1 0.97840310E-01 0.50388967E+03</pdfrwt>
<pdfrwt beam="2">  1       -1 0.15355586E-01 0.50388967E+03</pdfrwt>
<totfact> 0.10020023E+03</totfact>
</mgrwt>
</event>
<event>
 4      1 +1.5204000e-02 5.34941200e+02 7.81860800e-03 1.00504100e-01
       -1 -1    0    0    0  501 -0.0000000000e+00 +0.0000000000e+00 +1.2841642436e+02 1.2841642436e+02 0.0000000000e+00 0.0000e+00 1.0000e+00
        1 -1    0    0  501    0 +0.0000000000e+00 -0.0000000000e+00 -5.5709782919e+02 5.5709782919e+02 0.0000000000e+00 0.0000e+00 -1.0000e+00
     -556  1    1    2    0    0 +1.6390829002e+02 -6.7521407183e+01 -2.0057194323e+02 3.3414693232e+02 2.0000000000e+02 0.0000e+00 1.0000e+00
      556  1    1    2    0    0 -1.6390829002e+02 +6.7521407183e+01 -2.2810946159e+02 3.5136732124e+02 2.0000000000e+02 0.0000e+00 -1.0000e+00
<mgrwt>
<rscale>  0 0.53494116E+03</rscale>
<asrwt>0</asrwt>
<pdfrwt beam="2">  1        1 0.85707357E-01 0.53494116E+03</pdfrwt>
<pdfrwt beam="1">  1       -1 0.19756373E-01 0.53494116E+03</pdfrwt>
<totfact> 0.80060170E+02</totfact>
</mgrwt>
</event>
<event>
 4      1 +1.5204000e-02 8.99745100e+02 7.81860800e-03 9.42590000e-02
        1 -1    0    0  501    0 +0.0000000000e+00 +0.0000000000e+00 +4.6579542566e+01 4.6579542566e+01 0.0000000000e+00 0.0000e+00 -1.0000e+00
       -1 -1    0    0    0  501 -0.0000000000e+00 -0.0000000000e+00 -4.3449394746e+03 4.3449394746e+03 0.0000000000e+00 0.0000e+00 1.0000e+00
     -556  1    1    2    0    0 +1.7878585833e+02 +1.3060515935e+02 -3.7925348123e+03 3.8042531978e+03 2.0000000000e+02 0.0000e+00 1.0000e+00
      556  1    1    2    0    0 -1.7878585833e+02 -1.3060515935e+02 -5.0582511970e+02 5.8726581929e+02 2.0000000000e+02 0.0000e+00 -1.0000e+00
<mgrwt>
<rscale>  0 0.89974506E+03</rscale>
<asrwt>0</asrwt>
<pdfrwt beam="1">  1        1 0.71660831E-02 0.89974506E+03</pdfrwt>
<pdfrwt beam="2">  1       -1 0.66845227E+00 0.89974506E+03</pdfrwt>
<totfact> 0.27661840E-01</totfact>
</mgrwt>
</event>
<event>
 4      1 +1.5204000e-02 7.05622200e+02 7.81860800e-03 9.70766500e-02
       -1 -1    0    0    0  501 -0.0000000000e+00 +0.0000000000e+00 +2.4802102430e+02 2.4802102430e+02 0.0000000000e+00 0.0000e+00 1.0000e+00
        1 -1    0    0  501    0 +0.0000000000e+00 -0.0000000000e+00 -5.0187551103e+02 5.0187551103e+02 0.0000000000e+00 0.0000e+00 -1.0000e+00
     -556  1    1    2    0    0 -1.5355274372e+02 +8.6753666746e+01 +1.1858995019e+02 2.9183594721e+02 2.0000000000e+02 0.0000e+00 1.0000e+00
      556  1    1    2    0    0 +1.5355274372e+02 -8.6753666746e+01 -3.7244443693e+02 4.5806058813e+02 2.0000000000e+02 0.0000e+00 -1.0000e+00
<mgrwt>
<rscale>  0 0.70562222E+03</rscale>
<asrwt>0</asrwt>
<pdfrwt beam="2">  1        1 0.77211617E-01 0.70562222E+03</pdfrwt>
<pdfrwt beam="1">  1       -1 0.38157081E-01 0.70562222E+03</pdfrwt>
<totfact> 0.29634426E+02</totfact>
</mgrwt>
</event>
<event>
 4      1 +1.5204000e-02 4.98545000e+02 7.81860800e-03 1.01415900e-01
        2 -1    0    0  501    0 +0.0000000000e+00 +0.0000000000e+00 +1.0439289046e+02 1.0439289046e+02 0.0000000000e+00 0.0000e+00 1.0000e+00
       -2 -1    0    0    0  501 -0.0000000000e+00 -0.0000000000e+00 -5.9522046217e+02 5.9522046217e+02 0.0000000000e+00 0.0000e+00 -1.0000e+00
     -556  1    1    2    0    0 +4.0911128012e+01 -1.3869181746e+02 -1.9624495204e+02 3.1531130939e+02 2.0000000000e+02 0.0000e+00 1.0000e+00
      556  1    1    2    0    0 -4.0911128012e+01 +1.3869181746e+02 -2.9458261968e+02 3.8430204325e+02 2.0000000000e+02 0.0000e+00 -1.0000e+00
<mgrwt>
<rscale>  0 0.49854502E+03</rscale>
<asrwt>0</asrwt>
<pdfrwt beam="1">  1        2 0.16060444E-01 0.49854502E+03</pdfrwt>
<pdfrwt beam="2">  1       -2 0.91572380E-01 0.49854502E+03</pdfrwt>
<totfact> 0.37877559E+02</totfact>
</mgrwt>
</event>
<event>
 4      1 +1.5204000e-02 4.90107800e+02 7.81860800e-03 1.01639400e-01
        1 -1    0    0  501    0 +0.0000000000e+00 +0.0000000000e+00 +8.2714967976e+02 8.2714967976e+02 0.0000000000e+00 0.0000e+00 -1.0000e+00
       -1 -1    0    0    0  501 -0.0000000000e+00 -0.0000000000e+00 -7.2600409108e+01 7.2600409108e+01 0.0000000000e+00 0.0000e+00 1.0000e+00
     -556  1    1    2    0    0 +1.1482227549e+02 -3.6254445437e+01 +2.4047375626e+02 3.3515096182e+02 2.0000000000e+02 0.0000e+00 1.0000e+00
      556  1    1    2    0    0 -1.1482227549e+02 +3.6254445437e+01 +5.1407551439e+02 5.6459912705e+02 2.0000000000e+02 0.0000e+00 -1.0000e+00
<mgrwt>
<rscale>  0 0.49010776E+03</rscale>
<asrwt>0</asrwt>
<pdfrwt beam="1">  1        1 0.12725379E+00 0.49010776E+03</pdfrwt>
<pdfrwt beam="2">  1       -1 0.11169294E-01 0.49010776E+03</pdfrwt>
<totfact> 0.11189285E+03</totfact>
</mgrwt>
</event>
<event>
 4      1 +1.5204000e-02 9.97721300e+02 7.81860800e-03 9.31104800e-02
        2 -1    0    0  501    0 +0.0000000000e+00 +0.0000000000e+00 +2.0199500590e+03 2.0199500590e+03 0.0000000000e+00 0.0000e+00 -1.0000e+00
       -2 -1    0    0    0  501 -0.0000000000e+00 -0.0000000000e+00 -1.2320202659e+02 1.2320202659e+02 0.0000000000e+00 0.0000e+00 1.0000e+00
     -556  1    1    2    0    0 +8.3547934001e+01 +1.0242335954e+02 +8.6406069025e+00 2.3988635214e+02 2.0000000000e+02 0.0000e+00 1.0000e+00
      556  1    1    2    0    0 -8.3547934001e+01 -1.0242335954e+02 +1.8881074255e+03 1.9032657334e+03 2.0000000000e+02 0.0000e+00 -1.0000e+00
<mgrwt>
<rscale>  0 0.99772129E+03</rscale>
<asrwt>0</asrwt>
<pdfrwt beam="1">  1        2 0.31076152E+00 0.99772129E+03</pdfrwt>
<pdfrwt beam="2">  1       -2 0.18954159E-01 0.99772129E+03</pdfrwt>
<totfact> 0.15333087E+02</totfact>
</mgrwt>
</event>
<event>
 4      1 +1.5204000e-02 6.56021600e+02 7.81860800e-03 9.79554500e-02
       -1 -1    0    0    0  501 -0.0000000000e+00 +0.0000000000e+00 +2.2176111090e+02 2.2176111090e+02 0.0000000000e+00 0.0000e+00 1.0000e+00
        1 -1    0    0  501    0 +0.0000000000e+00 -0.0000000000e+00 -4.8516661373e+02 4.8516661373e+02 0.0000000000e+00 0.0000e+00 -1.0000e+00
     -556  1    1    2    0    0 -2.5735318570e+02 -5.0367688804e+00 -1.7107648625e+02 3.6813475166e+02 2.0000000000e+02 0.0000e+00 -1.0000e+00
      556  1    1    2    0    0 +2.5735318570e+02 +5.0367688804e+00 -9.2329016588e+01 3.3879297297e+02 2.0000000000e+02 0.0000e+00 1.0000e+00
<mgrwt>
<rscale>  0 0.65602161E+03</rscale>
<asrwt>0</asrwt>
<pdfrwt beam="2">  1        1 0.74641017E-01 0.65602161E+03</pdfrwt>
<pdfrwt beam="1">  1       -1 0.34117094E-01 0.65602161E+03</pdfrwt>
<totfact> 0.37979755E+02</totfact>
</mgrwt>
</event>
</LesHouchesEvents>
