<LesHouchesEvents version="3.0">
<header>
<!--
#*********************************************************************
#                                                                    *
#                        MadGraph5_aMC@NLO                           *
#                                                                    *
#                           Going Beyond                             *
#                                                                    *
#                   http://madgraph.hep.uiuc.edu                     *
#                   http://madgraph.phys.ucl.ac.be                   *
#                   http://amcatnlo.cern.ch                          *
#                                                                    *
#                     The MadGraph5_aMC@NLO team                     *
#                                                                    *
#....................................................................*
#                                                                    *
# This file contains all the information necessary to reproduce      *
# the events generated:                                              *
#                                                                    *
# 1. software version                                                *
# 2. proc_card          : code generation info including model       *
# 3. param_card         : model primary parameters in the LH format  *
# 4. run_card           : running parameters (collider and cuts)     *
# 5. pythia_card        : present only if pythia has been run        *
# 6. pgs_card           : present only if pgs has been run           *
# 7. delphes_cards      : present only if delphes has been run       *
#                                                                    *
#                                                                    *
#*********************************************************************
-->
<MGVersion>
#2.9.16
</MGVersion>
<MG5ProcCard>
<![CDATA[
#************************************************************
#*                     MadGraph5_aMC@NLO                    *
#*                                                          *
#*                *                       *                 *
#*                  *        * *        *                   *
#*                    * * * * 5 * * * *                     *
#*                  *        * *        *                   *
#*                *                       *                 *
#*                                                          *
#*                                                          *
#*         VERSION 2.9.16                2023-07-26         *
#*                                                          *
#*    The MadGraph5_aMC@NLO Development Team - Find us at   *
#*    https://server06.fynu.ucl.ac.be/projects/madgraph     *
#*                                                          *
#************************************************************
#*                                                          *
#*               Command File for MadGraph5_aMC@NLO         *
#*                                                          *
#*     run as ./bin/mg5_aMC  filename                       *
#*                                                          *
#************************************************************
set group_subprocesses Auto
set ignore_six_quark_processes False
set low_mem_multicore_nlo_generation False
set complex_mass_scheme False
set gauge unitary
set loop_optimized_output True
set loop_color_flows False
set max_npoint_for_channel 0
set default_unset_couplings 99
set max_t_for_channel 99
set zerowidth_tchannel True
import model sm
define p = g u c d s u~ c~ d~ s~
define j = g u c d s u~ c~ d~ s~
define l+ = e+ mu+
define l- = e- mu-
define vl = ve vm vt
define vl~ = ve~ vm~ vt~
generate p p > l+ l-
output JJSJ
]]>
</MG5ProcCard>
<MGProcCard>
#*********************************************************************
#                        MadGraph/MadEvent                           *
#                   http://madgraph.hep.uiuc.edu                     *
#                                                                    *
#                          proc_card.dat                             *
#*********************************************************************
#                                                                    *
#            This Files is generated by MADGRAPH 5                   *
#                                                                    *
# WARNING: This Files is generated for MADEVENT (compatibility issue)*
#          This files is NOT a valid MG4 proc_card.dat               *
#          Running this in MG4 will NEVER reproduce the result of MG5*
#                                                                    *
#*********************************************************************
#*********************************************************************
# Process(es) requested : mg2 input                                  *
#*********************************************************************
# Begin PROCESS # This is TAG. Do not modify this line
p p > l+ l-           #Process
# Be carefull the coupling are here in MG5 convention
          
end_coup           # End the couplings input

done               # this tells MG there are no more procs
# End PROCESS  # This is TAG. Do not modify this line
#*********************************************************************
# Model information                                                  *
#*********************************************************************
# Begin MODEL  # This is TAG. Do not modify this line
sm
# End   MODEL  # This is TAG. Do not modify this line
#*********************************************************************
# Start multiparticle definitions                                    *
#*********************************************************************
# Begin MULTIPARTICLES # This is TAG. Do not modify this line

# End  MULTIPARTICLES # This is TAG. Do not modify this line
</MGProcCard>
<MGRunCard>
<![CDATA[
#*********************************************************************
#                       MadGraph5_aMC@NLO                            *
#                                                                    *
#                     run_card.dat MadEvent                          *
#                                                                    *
#  This file is used to set the parameters of the run.               *
#                                                                    *
#  Some notation/conventions:                                        *
#                                                                    *
#   Lines starting with a '# ' are info or comments                  *
#                                                                    *
#   mind the format:   value    = variable     ! comment             *
#                                                                    *
#   To display more options, you can type the command:               *
#      update to_full                                                *
#*********************************************************************
#                                                                    
#*********************************************************************
# Tag name for the run (one word)                                    *
#*********************************************************************
  tag_1     = run_tag ! name of the run 
#*********************************************************************
# Number of events and rnd seed                                      *
# Warning: Do not generate more than 1M events in a single run       *
#*********************************************************************
  1000 = nevents ! Number of unweighted events requested 
 21 = iseed   ! rnd seed (0=assigned automatically=default))
#*********************************************************************
# Collider type and energy                                           *
# lpp: 0=No PDF, 1=proton, -1=antiproton, 2=photon from proton,      *
#                3=photon from electron, 4=photon from muon          *
#*********************************************************************
     1        = lpp1    ! beam 1 type 
     1        = lpp2    ! beam 2 type
     6500.0     = ebeam1  ! beam 1 total energy in GeV
     6500.0     = ebeam2  ! beam 2 total energy in GeV
# To see polarised beam options: type "update beam_pol"

#*********************************************************************
# PDF CHOICE: this automatically fixes also alpha_s and its evol.    *
#*********************************************************************
     nn23lo1    = pdlabel     ! PDF set                                     
     230000    = lhaid     ! if pdlabel=lhapdf, this is the lhapdf number
# To see heavy ion options: type "update ion_pdf"
#*********************************************************************
# Renormalization and factorization scales                           *
#*********************************************************************
 False = fixed_ren_scale  ! if .true. use fixed ren scale
 False        = fixed_fac_scale  ! if .true. use fixed fac scale
 91.188  = scale            ! fixed ren scale
 91.188  = dsqrt_q2fact1    ! fixed fact scale for pdf1
 91.188  = dsqrt_q2fact2    ! fixed fact scale for pdf2
 -1 = dynamical_scale_choice ! Choose one of the preselected dynamical choices
 1.0  = scalefact        ! scale factor for event-by-event scales
#*********************************************************************
# Type and output format
#*********************************************************************
  False     = gridpack  !True = setting up the grid pack
  -1.0 = time_of_flight ! threshold (in mm) below which the invariant livetime is not written (-1 means not written)
  average =  event_norm       ! average/sum. Normalization of the weight in the LHEF
# To see MLM/CKKW  merging options: type "update MLM" or "update CKKW"

#*********************************************************************
#
#*********************************************************************
# Phase-Space Optimization strategy (basic options)
#*********************************************************************
   0  = nhel          ! using helicities importance sampling or not.
                             ! 0: sum over helicity, 1: importance sampling
   1  = sde_strategy  ! default integration strategy (hep-ph/2021.00773)
                             ! 1 is old strategy (using amp square)
			     ! 2 is new strategy (using only the denominator)
# To see advanced option for Phase-Space optimization: type "update psoptim"			     
#*********************************************************************
# Generation bias, check the wiki page below for more information:   *
#  'cp3.irmp.ucl.ac.be/projects/madgraph/wiki/LOEventGenerationBias' *
#*********************************************************************
 None = bias_module  ! Bias type of bias, [None, ptj_bias, -custom_folder-]
 {} = bias_parameters ! Specifies the parameters of the module.
#
#*******************************                                                 
# Parton level cuts definition *
#*******************************                                     
#                                                                    
#
#*********************************************************************
# BW cutoff (M+/-bwcutoff*Gamma) ! Define on/off-shell for "$" and decay  
#*********************************************************************
  15.0  = bwcutoff      ! (M+/-bwcutoff*Gamma)
#*********************************************************************
# Standard Cuts                                                      *
#*********************************************************************
# Minimum and maximum pt's (for max, -1 means no cut)                *
#*********************************************************************
 10.0  = ptl       ! minimum pt for the charged leptons 
 -1.0  = ptlmax    ! maximum pt for the charged leptons
 {} = pt_min_pdg ! pt cut for other particles (use pdg code). Applied on particle and anti-particle
 {}	= pt_max_pdg ! pt cut for other particles (syntax e.g. {6: 100, 25: 50}) 
#
# For display option for energy cut in the partonic center of mass frame type 'update ecut'
#
#*********************************************************************
# Maximum and minimum absolute rapidity (for max, -1 means no cut)   *
#*********************************************************************
 2.5  = etal    ! max rap for the charged leptons 
 0.0  = etalmin ! main rap for the charged leptons
 {} = eta_min_pdg ! rap cut for other particles (use pdg code). Applied on particle and anti-particle
 {} = eta_max_pdg ! rap cut for other particles (syntax e.g. {6: 2.5, 23: 5})
#*********************************************************************
# Minimum and maximum DeltaR distance                                *
#*********************************************************************
 0.4 = drll    ! min distance between leptons 
 -1.0  = drllmax ! max distance between leptons
#*********************************************************************
# Minimum and maximum invariant mass for pairs                       *
#*********************************************************************
 0.0   = mmll    ! min invariant mass of l+l- (same flavour) lepton pair
 -1.0  = mmllmax ! max invariant mass of l+l- (same flavour) lepton pair
 {} = mxx_min_pdg ! min invariant mass of a pair of particles X/X~ (e.g. {6:250})
 {'default': False} = mxx_only_part_antipart ! if True the invariant mass is applied only 
                       ! to pairs of particle/antiparticle and not to pairs of the same pdg codes.  
 #*********************************************************************
 # Minimum and maximum invariant mass for all letpons                 *
 #*********************************************************************
 0.0   = mmnl    ! min invariant mass for all letpons (l+- and vl) 
 -1.0  = mmnlmax ! max invariant mass for all letpons (l+- and vl) 
 #*********************************************************************
 # Minimum and maximum pt for 4-momenta sum of leptons / neutrino     *
 #  for pair of lepton includes only same flavor, opposite charge
 #*********************************************************************
 0.0   = ptllmin  ! Minimum pt for 4-momenta sum of leptons(l and vl)
 -1.0  = ptllmax  ! Maximum pt for 4-momenta sum of leptons(l and vl)
#*********************************************************************
# Inclusive cuts                                                     *
#*********************************************************************
 0.0  = xptl ! minimum pt for at least one charged lepton 
 #*********************************************************************
 # Control the pt's of leptons sorted by pt                           *
 #*********************************************************************
 0.0   = ptl1min ! minimum pt for the leading lepton in pt
 0.0   = ptl2min ! minimum pt for the second lepton in pt
 -1.0  = ptl1max ! maximum pt for the leading lepton in pt 
 -1.0  = ptl2max ! maximum pt for the second lepton in pt
#*********************************************************************
# maximal pdg code for quark to be considered as a light jet         *
# (otherwise b cuts are applied)                                     *
#*********************************************************************
 4 = maxjetflavor    ! Maximum jet pdg code
#*********************************************************************
#
#*********************************************************************
# Store info for systematics studies                                 *
# WARNING: Do not use for interference type of computation           *
#*********************************************************************
   True  = use_syst      ! Enable systematics studies
#
systematics = systematics_program ! none, systematics [python], SysCalc [depreceted, C++]
['--mur=0.5,1,2', '--muf=0.5,1,2', '--pdf=errorset'] = systematics_arguments ! see: https://cp3.irmp.ucl.ac.be/projects/madgraph/wiki/Systematics#Systematicspythonmodule
# Syscalc is deprecated but to see the associate options type'update syscalc'
]]>
</MGRunCard>
<slha>
######################################################################
## PARAM_CARD AUTOMATICALY GENERATED BY MG5                       ####
######################################################################
###################################
## INFORMATION FOR MASS
###################################
BLOCK MASS # 
      5 4.700000e+00 # mb
      6 1.720000e+02 # mt
      15 1.777000e+00 # mta
      23 9.118760e+01 # mz
      25 1.250000e+02 # mh
      556 2.000000e+02 # mlwe
      1 0.000000e+00 # d : 0.0
      2 0.000000e+00 # u : 0.0
      3 0.000000e+00 # s : 0.0
      4 0.000000e+00 # c : 0.0
      11 0.000000e+00 # e- : 0.0
      12 0.000000e+00 # ve : 0.0
      13 0.000000e+00 # mu- : 0.0
      14 0.000000e+00 # vm : 0.0
      16 0.000000e+00 # vt : 0.0
      21 0.000000e+00 # g : 0.0
      22 0.000000e+00 # a : 0.0
      24 7.982436e+01 # w+ : cmath.sqrt(mz__exp__2/2. + cmath.sqrt(mz__exp__4/4. - (aew*cmath.pi*mz__exp__2)/(gf*sqrt__2)))
###################################
## INFORMATION FOR SMINPUTS
###################################
BLOCK SMINPUTS # 
      1 1.279000e+02 # aewm1
      2 1.166370e-05 # gf
      3 1.184000e-01 # as (note that parameter not used if you use a pdf set)
###################################
## INFORMATION FOR YUKAWA
###################################
BLOCK YUKAWA # 
      5 4.700000e+00 # ymb
      6 1.720000e+02 # ymt
      15 1.777000e+00 # ymtau
###################################
## INFORMATION FOR DECAY
###################################
BLOCK QNUMBERS 556 #  lwe-
      1 -3 # 3 times electric charge
      2 2 # number of spin states (2s+1)
      3 1 # colour rep (1: singlet, 3: triplet, 8: octet)
      4 1 # particle/antiparticle distinction (0=own anti)
#
#*************************
#      Decay widths      *
#*************************
#
#      PDG        Width
DECAY  1   0.000000e+00
#
#      PDG        Width
DECAY  2   0.000000e+00
#
#      PDG        Width
DECAY  3   0.000000e+00
#
#      PDG        Width
DECAY  4   0.000000e+00
#
#      PDG        Width
DECAY  5   0.000000e+00
#
#      PDG        Width
DECAY  6   1.508336e+00
#
#      PDG        Width
DECAY  11   0.000000e+00
#
#      PDG        Width
DECAY  12   0.000000e+00
#
#      PDG        Width
DECAY  13   0.000000e+00
#
#      PDG        Width
DECAY  14   0.000000e+00
#
#      PDG        Width
DECAY  15   0.000000e+00
#
#      PDG        Width
DECAY  16   0.000000e+00
#
#      PDG        Width
DECAY  21   0.000000e+00
#
#      PDG        Width
DECAY  22   0.000000e+00
#
#      PDG        Width
DECAY  23   2.411888e+00
#  BR             NDA  ID1    ID2   ...
   1.520543e-01   2    3  -3 # 0.3667378413446709
   1.520543e-01   2    1  -1 # 0.3667378413446709
   1.504122e-01   2    5  -5 # 0.36277728022939065
   1.178122e-01   2    4  -4 # 0.28414978425554693
   1.178122e-01   2    2  -2 # 0.28414978425554693
   6.877657e-02   2    16  -16 # 0.16588135744556048
   6.877657e-02   2    14  -14 # 0.16588135744556048
   6.877657e-02   2    12  -12 # 0.16588135744556048
   3.453449e-02   2    13  -13 # 0.08329330035643646
   3.453449e-02   2    11  -11 # 0.08329330035643646
   3.445616e-02   2    15  -15 # 0.0831043891057712
#
#      PDG        Width
DECAY  24   2.085000e+00
#
#      PDG        Width
DECAY  25   4.070000e-03
#
#      PDG        Width
DECAY  556   7.287748e-12
#  BR             NDA  ID1    ID2   ...
   1.000000e+00   2    23  11 # 7.287748021956571e-12
</slha>
<MGGenerationInfo>
#  Number of Events        :       1000
#  Integrated weight (pb)  :       1694.3999999999999
</MGGenerationInfo>
</header>
<init>
2212 2212 6.500000e+03 6.500000e+03 0 0 247000 247000 -4 1
1.694400e+03 1.095850e+01 1.694400e+03 1
<generator name='MadGraph5_aMC@NLO' version='2.9.16'>please cite 1405.0301 </generator>
</init>
<event>
 5      1 +1.6944000e+03 9.08514400e+01 7.81860800e-03 1.30080300e-01
        1 -1    0    0  501    0 +0.0000000000e+00 +0.0000000000e+00 +8.9508315019e+01 8.9508315019e+01 0.0000000000e+00 0.0000e+00 -1.0000e+00
       -1 -1    0    0    0  501 -0.0000000000e+00 -0.0000000000e+00 -2.3053680811e+01 2.3053680811e+01 0.0000000000e+00 0.0000e+00 1.0000e+00
       23  2    1    2    0    0 +0.0000000000e+00 +0.0000000000e+00 +6.6454634208e+01 1.1256199583e+02 9.0851441913e+01 0.0000e+00 0.0000e+00
      -11  1    3    3    0    0 -3.8721465082e+01 -2.3682551457e+01 +3.5471532752e+01 5.7605943594e+01 0.0000000000e+00 0.0000e+00 -1.0000e+00
       11  1    3    3    0    0 +3.8721465082e+01 +2.3682551457e+01 +3.0983101456e+01 5.4956052237e+01 0.0000000000e+00 0.0000e+00 1.0000e+00
<mgrwt>
<rscale>  0 0.90851442E+02</rscale>
<asrwt>0</asrwt>
<pdfrwt beam="1">  1        1 0.13770510E-01 0.90851442E+02</pdfrwt>
<pdfrwt beam="2">  1       -1 0.35467202E-02 0.90851442E+02</pdfrwt>
<totfact> 0.10357681E+05</totfact>
</mgrwt>
</event>
<event>
 4      1 +1.6944000e+03 3.14644800e+01 7.81860800e-03 1.58244300e-01
        3 -1    0    0  501    0 +0.0000000000e+00 +0.0000000000e+00 +8.3604897358e+00 8.3604897358e+00 0.0000000000e+00 0.0000e+00 -1.0000e+00
       -3 -1    0    0    0  501 -0.0000000000e+00 -0.0000000000e+00 -2.9603941380e+01 2.9603941380e+01 0.0000000000e+00 0.0000e+00 1.0000e+00
      -13  1    1    2    0    0 +8.9919058639e+00 -5.2556797705e+00 +3.6050243344e+00 1.1021467296e+01 0.0000000000e+00 0.0000e+00 -1.0000e+00
       13  1    1    2    0    0 -8.9919058639e+00 +5.2556797705e+00 -2.4848475979e+01 2.6942963819e+01 0.0000000000e+00 0.0000e+00 1.0000e+00
<mgrwt>
<rscale>  0 0.31464485E+02</rscale>
<asrwt>0</asrwt>
<pdfrwt beam="1">  1        3 0.12862292E-02 0.31464485E+02</pdfrwt>
<pdfrwt beam="2">  1       -3 0.45544525E-02 0.31464485E+02</pdfrwt>
<totfact> 0.60573610E+05</totfact>
</mgrwt>
</event>
<event>
 5      1 +1.6944000e+03 9.26797700e+01 7.81860800e-03 1.29648900e-01
        1 -1    0    0  501    0 +0.0000000000e+00 +0.0000000000e+00 +2.7619699242e+01 2.7619699242e+01 0.0000000000e+00 0.0000e+00 -1.0000e+00
       -1 -1    0    0    0  501 -0.0000000000e+00 -0.0000000000e+00 -7.7748313800e+01 7.7748313800e+01 0.0000000000e+00 0.0000e+00 1.0000e+00
       23  2    1    2    0    0 +0.0000000000e+00 +0.0000000000e+00 -5.0128614559e+01 1.0536801304e+02 9.2679772199e+01 0.0000e+00 0.0000e+00
      -13  1    3    3    0    0 +4.6137987007e+01 +3.7734145572e+00 -2.2670714735e+01 5.1545259812e+01 0.0000000000e+00 0.0000e+00 -1.0000e+00
       13  1    3    3    0    0 -4.6137987007e+01 -3.7734145572e+00 -2.7457899824e+01 5.3822753230e+01 0.0000000000e+00 0.0000e+00 1.0000e+00
<mgrwt>
<rscale>  0 0.92679772E+02</rscale>
<asrwt>0</asrwt>
<pdfrwt beam="1">  1        1 0.42491845E-02 0.92679772E+02</pdfrwt>
<pdfrwt beam="2">  1       -1 0.11961279E-01 0.92679772E+02</pdfrwt>
<totfact> 0.81570672E+04</totfact>
</mgrwt>
</event>
<event>
 5      1 +1.6944000e+03 9.41830800e+01 7.81860800e-03 1.29302700e-01
        3 -1    0    0  501    0 +0.0000000000e+00 +0.0000000000e+00 +1.8683565445e+02 1.8683565445e+02 0.0000000000e+00 0.0000e+00 -1.0000e+00
       -3 -1    0    0    0  501 -0.0000000000e+00 -0.0000000000e+00 -1.1869326136e+01 1.1869326136e+01 0.0000000000e+00 0.0000e+00 1.0000e+00
       23  2    1    2    0    0 +0.0000000000e+00 +0.0000000000e+00 +1.7496632831e+02 1.9870498058e+02 9.4183083758e+01 0.0000e+00 0.0000e+00
      -13  1    3    3    0    0 +3.3182405071e+01 -2.4123108003e+00 +1.7169691592e+01 3.7439144743e+01 0.0000000000e+00 0.0000e+00 1.0000e+00
       13  1    3    3    0    0 -3.3182405071e+01 +2.4123108003e+00 +1.5779663672e+02 1.6126583584e+02 0.0000000000e+00 0.0000e+00 -1.0000e+00
<mgrwt>
<rscale>  0 0.94183084E+02</rscale>
<asrwt>0</asrwt>
<pdfrwt beam="1">  1        3 0.28743945E-01 0.94183084E+02</pdfrwt>
<pdfrwt beam="2">  1       -3 0.18260503E-02 0.94183084E+02</pdfrwt>
<totfact> 0.26164246E+04</totfact>
</mgrwt>
</event>
<event>
 5      1 +1.6944000e+03 9.04834200e+01 7.81860800e-03 1.30168500e-01
        3 -1    0    0  501    0 +0.0000000000e+00 +0.0000000000e+00 +1.3053133309e+02 1.3053133309e+02 0.0000000000e+00 0.0000e+00 -1.0000e+00
       -3 -1    0    0    0  501 -0.0000000000e+00 -0.0000000000e+00 -1.5680620779e+01 1.5680620779e+01 0.0000000000e+00 0.0000e+00 1.0000e+00
       23  2    1    2    0    0 +0.0000000000e+00 +0.0000000000e+00 +1.1485071232e+02 1.4621195387e+02 9.0483420228e+01 0.0000e+00 0.0000e+00
      -11  1    3    3    0    0 +1.5199673018e+00 +3.9855995912e+01 +9.1931550721e+01 1.0021088129e+02 0.0000000000e+00 0.0000e+00 1.0000e+00
       11  1    3    3    0    0 -1.5199673018e+00 -3.9855995912e+01 +2.2919161595e+01 4.6001072585e+01 0.0000000000e+00 0.0000e+00 -1.0000e+00
<mgrwt>
<rscale>  0 0.90483420E+02</rscale>
<asrwt>0</asrwt>
<pdfrwt beam="1">  1        3 0.20081743E-01 0.90483420E+02</pdfrwt>
<pdfrwt beam="2">  1       -3 0.24124033E-02 0.90483420E+02</pdfrwt>
<totfact> 0.32198418E+04</totfact>
</mgrwt>
</event>
<event>
 5      1 +1.6944000e+03 9.11743000e+01 7.81860800e-03 1.30003300e-01
        1 -1    0    0  501    0 +0.0000000000e+00 +0.0000000000e+00 +9.9820077348e+01 9.9820077348e+01 0.0000000000e+00 0.0000e+00 -1.0000e+00
       -1 -1    0    0    0  501 -0.0000000000e+00 -0.0000000000e+00 -2.0819340942e+01 2.0819340942e+01 0.0000000000e+00 0.0000e+00 1.0000e+00
       23  2    1    2    0    0 +0.0000000000e+00 +0.0000000000e+00 +7.9000736405e+01 1.2063941829e+02 9.1174299519e+01 0.0000e+00 0.0000e+00
      -13  1    3    3    0    0 -3.4386618393e+01 +2.0892908088e+01 +6.7855673763e+01 7.8888184126e+01 0.0000000000e+00 0.0000e+00 -1.0000e+00
       13  1    3    3    0    0 +3.4386618393e+01 -2.0892908088e+01 +1.1145062642e+01 4.1751234164e+01 0.0000000000e+00 0.0000e+00 1.0000e+00
<mgrwt>
<rscale>  0 0.91174300E+02</rscale>
<asrwt>0</asrwt>
<pdfrwt beam="1">  1        1 0.15356935E-01 0.91174300E+02</pdfrwt>
<pdfrwt beam="2">  1       -1 0.32029756E-02 0.91174300E+02</pdfrwt>
<totfact> 0.10442841E+05</totfact>
</mgrwt>
</event>
<event>
 5      1 +1.6944000e+03 9.21865400e+01 7.81860800e-03 1.29764100e-01
       -4 -1    0    0    0  501 -0.0000000000e+00 +0.0000000000e+00 +1.9916802692e+01 1.9916802692e+01 0.0000000000e+00 0.0000e+00 1.0000e+00
        4 -1    0    0  501    0 +0.0000000000e+00 -0.0000000000e+00 -1.0667323350e+02 1.0667323350e+02 0.0000000000e+00 0.0000e+00 -1.0000e+00
       23  2    1    2    0    0 +0.0000000000e+00 +0.0000000000e+00 -8.6756430806e+01 1.2659003619e+02 9.2186544443e+01 0.0000e+00 0.0000e+00
      -13  1    3    3    0    0 +1.5096346666e+01 +1.5265791625e+01 +1.2631376031e+01 2.4909751846e+01 0.0000000000e+00 0.0000e+00 1.0000e+00
       13  1    3    3    0    0 -1.5096346666e+01 -1.5265791625e+01 -9.9387806837e+01 1.0168028434e+02 0.0000000000e+00 0.0000e+00 -1.0000e+00
<mgrwt>
<rscale>  0 0.92186544E+02</rscale>
<asrwt>0</asrwt>
<pdfrwt beam="2">  1        4 0.16411267E-01 0.92186544E+02</pdfrwt>
<pdfrwt beam="1">  1       -4 0.30641235E-02 0.92186544E+02</pdfrwt>
<totfact> 0.24173023E+04</totfact>
</mgrwt>
</event>
<event>
 5      1 +1.6944000e+03 9.11698600e+01 7.81860800e-03 1.30004300e-01
       -1 -1    0    0    0  501 -0.0000000000e+00 +0.0000000000e+00 +6.6795612199e+01 6.6795612199e+01 0.0000000000e+00 0.0000e+00 1.0000e+00
        1 -1    0    0  501    0 +0.0000000000e+00 -0.0000000000e+00 -3.1109618544e+01 3.1109618544e+01 0.0000000000e+00 0.0000e+00 -1.0000e+00
       23  2    1    2    0    0 +0.0000000000e+00 +0.0000000000e+00 +3.5685993655e+01 9.7905230744e+01 9.1169863792e+01 0.0000e+00 0.0000e+00
      -11  1    3    3    0    0 -1.4789381256e+01 -3.4071276555e+01 +4.6222794521e+01 5.9296917436e+01 0.0000000000e+00 0.0000e+00 1.0000e+00
       11  1    3    3    0    0 +1.4789381256e+01 +3.4071276555e+01 -1.0536800866e+01 3.8608313308e+01 0.0000000000e+00 0.0000e+00 -1.0000e+00
<mgrwt>
<rscale>  0 0.91169864E+02</rscale>
<asrwt>0</asrwt>
<pdfrwt beam="2">  1        1 0.47860952E-02 0.91169864E+02</pdfrwt>
<pdfrwt beam="1">  1       -1 0.10276248E-01 0.91169864E+02</pdfrwt>
<totfact> 0.87210399E+04</totfact>
</mgrwt>
</event>
<event>
 5      1 +1.6944000e+03 9.14130300e+01 7.81860800e-03 1.29946500e-01
       -4 -1    0    0    0  501 -0.0000000000e+00 +0.0000000000e+00 +2.6603105087e+01 2.6603105087e+01 0.0000000000e+00 0.0000e+00 1.0000e+00
        4 -1    0    0  501    0 +0.0000000000e+00 -0.0000000000e+00 -7.8527877326e+01 7.8527877326e+01 0.0000000000e+00 0.0000e+00 -1.0000e+00
       23  2    1    2    0    0 +0.0000000000e+00 +0.0000000000e+00 -5.1924772239e+01 1.0513098241e+02 9.1413026923e+01 0.0000e+00 0.0000e+00
      -11  1    3    3    0    0 -4.5635649277e+01 -1.1008489270e+00 -2.8600281623e+01 5.3868362350e+01 0.0000000000e+00 0.0000e+00 1.0000e+00
       11  1    3    3    0    0 +4.5635649277e+01 +1.1008489270e+00 -2.3324490616e+01 5.1262620064e+01 0.0000000000e+00 0.0000e+00 -1.0000e+00
<mgrwt>
<rscale>  0 0.91413027E+02</rscale>
<asrwt>0</asrwt>
<pdfrwt beam="2">  1        4 0.12081212E-01 0.91413027E+02</pdfrwt>
<pdfrwt beam="1">  1       -4 0.40927854E-02 0.91413027E+02</pdfrwt>
<totfact> 0.25961422E+04</totfact>
</mgrwt>
</event>
<event>
 5      1 +1.6944000e+03 9.86897200e+01 7.81860800e-03 1.28307600e-01
       -2 -1    0    0    0  501 -0.0000000000e+00 +0.0000000000e+00 +3.8363699560e+01 3.8363699560e+01 0.0000000000e+00 0.0000e+00 1.0000e+00
        2 -1    0    0  501    0 +0.0000000000e+00 -0.0000000000e+00 -6.3469246942e+01 6.3469246942e+01 0.0000000000e+00 0.0000e+00 -1.0000e+00
       23  2    1    2    0    0 +0.0000000000e+00 +0.0000000000e+00 -2.5105547383e+01 1.0183294650e+02 9.8689718228e+01 0.0000e+00 0.0000e+00
      -11  1    3    3    0    0 -2.7064253275e+01 +3.7969580769e+01 +4.1093530992e+00 4.6808649329e+01 0.0000000000e+00 0.0000e+00 1.0000e+00
       11  1    3    3    0    0 +2.7064253275e+01 -3.7969580769e+01 -2.9214900482e+01 5.5024297172e+01 0.0000000000e+00 0.0000e+00 -1.0000e+00
<mgrwt>
<rscale>  0 0.98689718E+02</rscale>
<asrwt>0</asrwt>
<pdfrwt beam="2">  1        2 0.97644995E-02 0.98689718E+02</pdfrwt>
<pdfrwt beam="1">  1       -2 0.59021077E-02 0.98689718E+02</pdfrwt>
<totfact> 0.86043780E+04</totfact>
</mgrwt>
</event>
<event>
 5      1 +1.6944000e+03 9.02919600e+01 7.81860800e-03 1.30214600e-01
       -1 -1    0    0    0  501 -0.0000000000e+00 +0.0000000000e+00 +8.4873496470e+01 8.4873496470e+01 0.0000000000e+00 0.0000e+00 1.0000e+00
        1 -1    0    0  501    0 +0.0000000000e+00 -0.0000000000e+00 -2.4014088260e+01 2.4014088260e+01 0.0000000000e+00 0.0000e+00 -1.0000e+00
       23  2    1    2    0    0 +0.0000000000e+00 +0.0000000000e+00 +6.0859408211e+01 1.0888758473e+02 9.0291962769e+01 0.0000e+00 0.0000e+00
      -11  1    3    3    0    0 -2.7443081811e+01 -1.9642323221e+01 +6.6592441035e+01 7.4655855791e+01 0.0000000000e+00 0.0000e+00 1.0000e+00
       11  1    3    3    0    0 +2.7443081811e+01 +1.9642323221e+01 -5.7330328246e+00 3.4231728940e+01 0.0000000000e+00 0.0000e+00 -1.0000e+00
<mgrwt>
<rscale>  0 0.90291963E+02</rscale>
<asrwt>0</asrwt>
<pdfrwt beam="2">  1        1 0.36944752E-02 0.90291963E+02</pdfrwt>
<pdfrwt beam="1">  1       -1 0.13057461E-01 0.90291963E+02</pdfrwt>
<totfact> 0.85919046E+04</totfact>
</mgrwt>
</event>
<event>
 4      1 +1.6944000e+03 6.25075100e+01 7.81860800e-03 1.38760000e-01
       -2 -1    0    0    0  501 -0.0000000000e+00 +0.0000000000e+00 +2.8487829342e+01 2.8487829342e+01 0.0000000000e+00 0.0000e+00 -1.0000e+00
        2 -1    0    0  501    0 +0.0000000000e+00 -0.0000000000e+00 -3.4288224483e+01 3.4288224483e+01 0.0000000000e+00 0.0000e+00 1.0000e+00
      -11  1    1    2    0    0 -2.2467453179e+01 -1.6831996455e+01 -1.6695826180e+01 3.2662718332e+01 0.0000000000e+00 0.0000e+00 1.0000e+00
       11  1    1    2    0    0 +2.2467453179e+01 +1.6831996455e+01 +1.0895431039e+01 3.0113335493e+01 0.0000000000e+00 0.0000e+00 -1.0000e+00
<mgrwt>
<rscale>  0 0.62507506E+02</rscale>
<asrwt>0</asrwt>
<pdfrwt beam="2">  1        2 0.52751115E-02 0.62507506E+02</pdfrwt>
<pdfrwt beam="1">  1       -2 0.43827430E-02 0.62507506E+02</pdfrwt>
<totfact> 0.26521949E+05</totfact>
</mgrwt>
</event>
<event>
 4      1 +1.6944000e+03 2.25285300e+01 7.81860800e-03 1.69926900e-01
        2 -1    0    0  501    0 +0.0000000000e+00 +0.0000000000e+00 +1.6748143518e+01 1.6748143518e+01 0.0000000000e+00 0.0000e+00 1.0000e+00
       -2 -1    0    0    0  501 -0.0000000000e+00 -0.0000000000e+00 -7.5759806739e+00 7.5759806739e+00 0.0000000000e+00 0.0000e+00 -1.0000e+00
      -13  1    1    2    0    0 -7.8803823207e+00 +6.9483567219e+00 +1.9983721432e-01 1.0508093146e+01 0.0000000000e+00 0.0000e+00 -1.0000e+00
       13  1    1    2    0    0 +7.8803823207e+00 -6.9483567219e+00 +8.9723256300e+00 1.3816031046e+01 0.0000000000e+00 0.0000e+00 1.0000e+00
<mgrwt>
<rscale>  0 0.22528525E+02</rscale>
<asrwt>0</asrwt>
<pdfrwt beam="1">  1        2 0.25766375E-02 0.22528525E+02</pdfrwt>
<pdfrwt beam="2">  1       -2 0.11655355E-02 0.22528525E+02</pdfrwt>
<totfact> 0.31261239E+06</totfact>
</mgrwt>
</event>
<event>
 4      1 +1.6944000e+03 2.29944600e+02 7.81860800e-03 1.12667900e-01
        3 -1    0    0  501    0 +0.0000000000e+00 +0.0000000000e+00 +6.7195717298e+01 6.7195717298e+01 0.0000000000e+00 0.0000e+00 -1.0000e+00
       -3 -1    0    0    0  501 -0.0000000000e+00 -0.0000000000e+00 -1.9671838161e+02 1.9671838161e+02 0.0000000000e+00 0.0000e+00 1.0000e+00
      -11  1    1    2    0    0 +2.2952221563e+01 -7.9506066296e+01 -1.5636860692e+02 1.7691568693e+02 0.0000000000e+00 0.0000e+00 1.0000e+00
       11  1    1    2    0    0 -2.2952221563e+01 +7.9506066296e+01 +2.6845942604e+01 8.6998411979e+01 0.0000000000e+00 0.0000e+00 -1.0000e+00
<mgrwt>
<rscale>  0 0.22994463E+03</rscale>
<asrwt>0</asrwt>
<pdfrwt beam="1">  1        3 0.10337803E-01 0.22994463E+03</pdfrwt>
<pdfrwt beam="2">  1       -3 0.30264366E-01 0.22994463E+03</pdfrwt>
<totfact> 0.18365871E+03</totfact>
</mgrwt>
</event>
<event>
 5      1 +1.6944000e+03 9.42405200e+01 7.81860800e-03 1.29289600e-01
       -1 -1    0    0    0  501 -0.0000000000e+00 +0.0000000000e+00 +1.9973855386e+01 1.9973855386e+01 0.0000000000e+00 0.0000e+00 1.0000e+00
        1 -1    0    0  501    0 +0.0000000000e+00 -0.0000000000e+00 -1.1116125767e+02 1.1116125767e+02 0.0000000000e+00 0.0000e+00 -1.0000e+00
       23  2    1    2    0    0 +0.0000000000e+00 +0.0000000000e+00 -9.1187402288e+01 1.3113511306e+02 9.4240519635e+01 0.0000e+00 0.0000e+00
      -11  1    3    3    0    0 +2.1872994600e+01 -1.2997315421e+01 -1.0078114391e+02 1.0394323965e+02 0.0000000000e+00 0.0000e+00 -1.0000e+00
       11  1    3    3    0    0 -2.1872994600e+01 +1.2997315421e+01 +9.5937416268e+00 2.7191873406e+01 0.0000000000e+00 0.0000e+00 1.0000e+00
<mgrwt>
<rscale>  0 0.94240520E+02</rscale>
<asrwt>0</asrwt>
<pdfrwt beam="2">  1        1 0.17101732E-01 0.94240520E+02</pdfrwt>
<pdfrwt beam="1">  1       -1 0.30729007E-02 0.94240520E+02</pdfrwt>
<totfact> 0.97169247E+04</totfact>
</mgrwt>
</event>
<event>
 5      1 +1.6944000e+03 9.29650700e+01 7.81860800e-03 1.29582600e-01
        1 -1    0    0  501    0 +0.0000000000e+00 +0.0000000000e+00 +1.9451638245e+01 1.9451638245e+01 0.0000000000e+00 0.0000e+00 -1.0000e+00
       -1 -1    0    0    0  501 -0.0000000000e+00 -0.0000000000e+00 -1.1107681799e+02 1.1107681799e+02 0.0000000000e+00 0.0000e+00 1.0000e+00
       23  2    1    2    0    0 +0.0000000000e+00 +0.0000000000e+00 -9.1625179747e+01 1.3052845624e+02 9.2965070452e+01 0.0000e+00 0.0000e+00
      -13  1    3    3    0    0 +8.0709795103e+00 +4.3991138026e+01 -6.3587398785e+01 7.7741354628e+01 0.0000000000e+00 0.0000e+00 1.0000e+00
       13  1    3    3    0    0 -8.0709795103e+00 -4.3991138026e+01 -2.8037780962e+01 5.2787101610e+01 0.0000000000e+00 0.0000e+00 -1.0000e+00
<mgrwt>
<rscale>  0 0.92965070E+02</rscale>
<asrwt>0</asrwt>
<pdfrwt beam="1">  1        1 0.29925597E-02 0.92965070E+02</pdfrwt>
<pdfrwt beam="2">  1       -1 0.17088742E-01 0.92965070E+02</pdfrwt>
<totfact> 0.75850305E+04</totfact>
</mgrwt>
</event>
<event>
 5      1 +1.6944000e+03 8.61176100e+01 7.81860800e-03 1.31253500e-01
       -4 -1    0    0    0  501 -0.0000000000e+00 +0.0000000000e+00 +2.7505217600e+01 2.7505217600e+01 0.0000000000e+00 0.0000e+00 1.0000e+00
        4 -1    0    0  501    0 +0.0000000000e+00 -0.0000000000e+00 -6.7407603313e+01 6.7407603313e+01 0.0000000000e+00 0.0000e+00 -1.0000e+00
       23  2    1    2    0    0 +0.0000000000e+00 +0.0000000000e+00 -3.9902385713e+01 9.4912820913e+01 8.6117612531e+01 0.0000e+00 0.0000e+00
      -13  1    3    3    0    0 -2.1719938557e+01 -2.1174288404e+01 -5.3633030445e+01 6.1616622555e+01 0.0000000000e+00 0.0000e+00 -1.0000e+00
       13  1    3    3    0    0 +2.1719938557e+01 +2.1174288404e+01 +1.3730644732e+01 3.3296198358e+01 0.0000000000e+00 0.0000e+00 1.0000e+00
<mgrwt>
<rscale>  0 0.86117613E+02</rscale>
<asrwt>0</asrwt>
<pdfrwt beam="2">  1        4 0.10370401E-01 0.86117613E+02</pdfrwt>
<pdfrwt beam="1">  1       -4 0.42315719E-02 0.86117613E+02</pdfrwt>
<totfact> 0.31234750E+04</totfact>
</mgrwt>
</event>
<event>
 5      1 +1.6944000e+03 9.24087200e+01 7.81860800e-03 1.29712100e-01
       -3 -1    0    0    0  501 -0.0000000000e+00 +0.0000000000e+00 +3.6899416823e+01 3.6899416823e+01 0.0000000000e+00 0.0000e+00 1.0000e+00
        3 -1    0    0  501    0 +0.0000000000e+00 -0.0000000000e+00 -5.7855736261e+01 5.7855736261e+01 0.0000000000e+00 0.0000e+00 -1.0000e+00
       23  2    1    2    0    0 +0.0000000000e+00 +0.0000000000e+00 -2.0956319438e+01 9.4755153084e+01 9.2408720971e+01 0.0000e+00 0.0000e+00
      -13  1    3    3    0    0 -6.6516038171e+00 +3.1221953441e+01 -4.4729759538e+01 5.4952757877e+01 0.0000000000e+00 0.0000e+00 -1.0000e+00
       13  1    3    3    0    0 +6.6516038171e+00 -3.1221953441e+01 +2.3773440100e+01 3.9802395207e+01 0.0000000000e+00 0.0000e+00 1.0000e+00
<mgrwt>
<rscale>  0 0.92408721E+02</rscale>
<asrwt>0</asrwt>
<pdfrwt beam="2">  1        3 0.89008825E-02 0.92408721E+02</pdfrwt>
<pdfrwt beam="1">  1       -3 0.56768334E-02 0.92408721E+02</pdfrwt>
<totfact> 0.33804119E+04</totfact>
</mgrwt>
</event>
<event>
 5      1 +1.6944000e+03 8.87566200e+01 7.81860800e-03 1.30589100e-01
       -1 -1    0    0    0  501 -0.0000000000e+00 +0.0000000000e+00 +2.3548995249e+01 2.3548995249e+01 0.0000000000e+00 0.0000e+00 1.0000e+00
        1 -1    0    0  501    0 +0.0000000000e+00 -0.0000000000e+00 -8.3631352755e+01 8.3631352755e+01 0.0000000000e+00 0.0000e+00 -1.0000e+00
       23  2    1    2    0    0 +0.0000000000e+00 +0.0000000000e+00 -6.0082357506e+01 1.0718034800e+02 8.8756618428e+01 0.0000e+00 0.0000e+00
      -13  1    3    3    0    0 -5.0493860778e+00 +1.9414885632e+01 +1.7761138234e+01 2.6793508827e+01 0.0000000000e+00 0.0000e+00 1.0000e+00
       13  1    3    3    0    0 +5.0493860778e+00 -1.9414885632e+01 -7.7843495740e+01 8.0386839177e+01 0.0000000000e+00 0.0000e+00 -1.0000e+00
<mgrwt>
<rscale>  0 0.88756618E+02</rscale>
<asrwt>0</asrwt>
<pdfrwt beam="2">  1        1 0.12866362E-01 0.88756618E+02</pdfrwt>
<pdfrwt beam="1">  1       -1 0.36229223E-02 0.88756618E+02</pdfrwt>
<totfact> 0.10919822E+05</totfact>
</mgrwt>
</event>
<event>
 5      1 +1.6944000e+03 8.76343600e+01 7.81860800e-03 1.30868400e-01
       -2 -1    0    0    0  501 -0.0000000000e+00 +0.0000000000e+00 +1.4808408140e+01 1.4808408140e+01 0.0000000000e+00 0.0000e+00 1.0000e+00
        2 -1    0    0  501    0 +0.0000000000e+00 -0.0000000000e+00 -1.2965237918e+02 1.2965237918e+02 0.0000000000e+00 0.0000e+00 -1.0000e+00
       23  2    1    2    0    0 +0.0000000000e+00 +0.0000000000e+00 -1.1484397104e+02 1.4446078732e+02 8.7634361916e+01 0.0000e+00 0.0000e+00
      -13  1    3    3    0    0 -2.1371544565e+01 -1.3109801929e+01 -1.1665926401e+02 1.1932306442e+02 0.0000000000e+00 0.0000e+00 -1.0000e+00
       13  1    3    3    0    0 +2.1371544565e+01 +1.3109801929e+01 +1.8152929727e+00 2.5137722894e+01 0.0000000000e+00 0.0000e+00 1.0000e+00
<mgrwt>
<rscale>  0 0.87634362E+02</rscale>
<asrwt>0</asrwt>
<pdfrwt beam="2">  1        2 0.19946521E-01 0.87634362E+02</pdfrwt>
<pdfrwt beam="1">  1       -2 0.22782165E-02 0.87634362E+02</pdfrwt>
<totfact> 0.14830438E+05</totfact>
</mgrwt>
</event>
<event>
 5      1 +1.6944000e+03 9.05777100e+01 7.81860800e-03 1.30145900e-01
        1 -1    0    0  501    0 +0.0000000000e+00 +0.0000000000e+00 +1.2788300543e+01 1.2788300543e+01 0.0000000000e+00 0.0000e+00 -1.0000e+00
       -1 -1    0    0    0  501 -0.0000000000e+00 -0.0000000000e+00 -1.6038723952e+02 1.6038723952e+02 0.0000000000e+00 0.0000e+00 1.0000e+00
       23  2    1    2    0    0 +0.0000000000e+00 +0.0000000000e+00 -1.4759893898e+02 1.7317554006e+02 9.0577706356e+01 0.0000e+00 0.0000e+00
      -11  1    3    3    0    0 +2.4165352164e+01 -5.6552441050e+00 -1.4622830241e+02 1.4831946081e+02 0.0000000000e+00 0.0000e+00 1.0000e+00
       11  1    3    3    0    0 -2.4165352164e+01 +5.6552441050e+00 -1.3706365713e+00 2.4856079250e+01 0.0000000000e+00 0.0000e+00 -1.0000e+00
<mgrwt>
<rscale>  0 0.90577706E+02</rscale>
<asrwt>0</asrwt>
<pdfrwt beam="1">  1        1 0.19674308E-02 0.90577706E+02</pdfrwt>
<pdfrwt beam="2">  1       -1 0.24674960E-01 0.90577706E+02</pdfrwt>
<totfact> 0.74870286E+04</totfact>
</mgrwt>
</event>
<event>
 5      1 +1.6944000e+03 9.53526200e+01 7.81860800e-03 1.29038400e-01
        2 -1    0    0  501    0 +0.0000000000e+00 +0.0000000000e+00 +4.3601051768e+01 4.3601051768e+01 0.0000000000e+00 0.0000e+00 -1.0000e+00
       -2 -1    0    0    0  501 -0.0000000000e+00 -0.0000000000e+00 -5.2132474999e+01 5.2132474999e+01 0.0000000000e+00 0.0000e+00 1.0000e+00
       23  2    1    2    0    0 +0.0000000000e+00 +0.0000000000e+00 -8.5314232308e+00 9.5733526768e+01 9.5352624322e+01 0.0000e+00 0.0000e+00
      -11  1    3    3    0    0 +4.3049399578e+01 +1.7928284949e+01 -1.4222815094e+01 4.8754104181e+01 0.0000000000e+00 0.0000e+00 1.0000e+00
       11  1    3    3    0    0 -4.3049399578e+01 -1.7928284949e+01 +5.6913918632e+00 4.6979422587e+01 0.0000000000e+00 0.0000e+00 -1.0000e+00
<mgrwt>
<rscale>  0 0.95352624E+02</rscale>
<asrwt>0</asrwt>
<pdfrwt beam="1">  1        2 0.67078541E-02 0.95352624E+02</pdfrwt>
<pdfrwt beam="2">  1       -2 0.80203808E-02 0.95352624E+02</pdfrwt>
<totfact> 0.85682193E+04</totfact>
</mgrwt>
</event>
<event>
 5      1 +1.6944000e+03 9.21479900e+01 7.81860800e-03 1.29773200e-01
       -1 -1    0    0    0  501 -0.0000000000e+00 +0.0000000000e+00 +5.6263888573e+01 5.6263888573e+01 0.0000000000e+00 0.0000e+00 1.0000e+00
        1 -1    0    0  501    0 +0.0000000000e+00 -0.0000000000e+00 -3.7729585207e+01 3.7729585207e+01 0.0000000000e+00 0.0000e+00 -1.0000e+00
       23  2    1    2    0    0 +0.0000000000e+00 +0.0000000000e+00 +1.8534303366e+01 9.3993473779e+01 9.2147993531e+01 0.0000e+00 0.0000e+00
      -11  1    3    3    0    0 -4.5289342403e+01 +4.9061876943e+00 +1.6305929115e+01 4.8384693213e+01 0.0000000000e+00 0.0000e+00 -1.0000e+00
       11  1    3    3    0    0 +4.5289342403e+01 -4.9061876943e+00 +2.2283742506e+00 4.5608780567e+01 0.0000000000e+00 0.0000e+00 1.0000e+00
<mgrwt>
<rscale>  0 0.92147994E+02</rscale>
<asrwt>0</asrwt>
<pdfrwt beam="2">  1        1 0.58045516E-02 0.92147994E+02</pdfrwt>
<pdfrwt beam="1">  1       -1 0.86559829E-02 0.92147994E+02</pdfrwt>
<totfact> 0.87196512E+04</totfact>
</mgrwt>
</event>
<event>
 5      1 +1.6944000e+03 9.12462000e+01 7.81860800e-03 1.29986200e-01
        3 -1    0    0  501    0 +0.0000000000e+00 +0.0000000000e+00 +3.0136207304e+01 3.0136207304e+01 0.0000000000e+00 0.0000e+00 -1.0000e+00
       -3 -1    0    0    0  501 -0.0000000000e+00 -0.0000000000e+00 -6.9068659723e+01 6.9068659723e+01 0.0000000000e+00 0.0000e+00 1.0000e+00
       23  2    1    2    0    0 +0.0000000000e+00 +0.0000000000e+00 -3.8932452419e+01 9.9204867028e+01 9.1246204253e+01 0.0000e+00 0.0000e+00
      -13  1    3    3    0    0 +2.5868855681e+01 -1.1660626490e+01 -5.8307590766e+01 6.4845532192e+01 0.0000000000e+00 0.0000e+00 1.0000e+00
       13  1    3    3    0    0 -2.5868855681e+01 +1.1660626490e+01 +1.9375138347e+01 3.4359334835e+01 0.0000000000e+00 0.0000e+00 -1.0000e+00
<mgrwt>
<rscale>  0 0.91246204E+02</rscale>
<asrwt>0</asrwt>
<pdfrwt beam="1">  1        3 0.46363397E-02 0.91246204E+02</pdfrwt>
<pdfrwt beam="2">  1       -3 0.10625948E-01 0.91246204E+02</pdfrwt>
<totfact> 0.34659394E+04</totfact>
</mgrwt>
</event>
<event>
 5      1 +1.6944000e+03 8.93592600e+01 7.81860800e-03 1.30441100e-01
        1 -1    0    0  501    0 +0.0000000000e+00 +0.0000000000e+00 +1.4739565275e+02 1.4739565275e+02 0.0000000000e+00 0.0000e+00 -1.0000e+00
       -1 -1    0    0    0  501 -0.0000000000e+00 -0.0000000000e+00 -1.3543611694e+01 1.3543611694e+01 0.0000000000e+00 0.0000e+00 1.0000e+00
       23  2    1    2    0    0 +0.0000000000e+00 +0.0000000000e+00 +1.3385204105e+02 1.6093926444e+02 8.9359263339e+01 0.0000e+00 0.0000e+00
      -13  1    3    3    0    0 +9.0947727194e+00 -2.6253717312e+01 +3.9078470881e+00 2.8057865784e+01 0.0000000000e+00 0.0000e+00 1.0000e+00
       13  1    3    3    0    0 -9.0947727194e+00 +2.6253717312e+01 +1.2994419397e+02 1.3288139866e+02 0.0000000000e+00 0.0000e+00 -1.0000e+00
<mgrwt>
<rscale>  0 0.89359263E+02</rscale>
<asrwt>0</asrwt>
<pdfrwt beam="1">  1        1 0.22676253E-01 0.89359263E+02</pdfrwt>
<pdfrwt beam="2">  1       -1 0.20836327E-02 0.89359263E+02</pdfrwt>
<totfact> 0.11800296E+05</totfact>
</mgrwt>
</event>
<event>
 5      1 +1.6944000e+03 9.15570400e+01 7.81860800e-03 1.29912400e-01
       -4 -1    0    0    0  501 -0.0000000000e+00 +0.0000000000e+00 +1.3623125259e+02 1.3623125259e+02 0.0000000000e+00 0.0000e+00 1.0000e+00
        4 -1    0    0  501    0 +0.0000000000e+00 -0.0000000000e+00 -1.5383202205e+01 1.5383202205e+01 0.0000000000e+00 0.0000e+00 -1.0000e+00
       23  2    1    2    0    0 +0.0000000000e+00 +0.0000000000e+00 +1.2084805039e+02 1.5161445480e+02 9.1557040259e+01 0.0000e+00 0.0000e+00
      -11  1    3    3    0    0 -8.8555994568e+00 +3.9663479750e+01 +2.5528518102e+01 4.7992900560e+01 0.0000000000e+00 0.0000e+00 -1.0000e+00
       11  1    3    3    0    0 +8.8555994568e+00 -3.9663479750e+01 +9.5319532283e+01 1.0362155424e+02 0.0000000000e+00 0.0000e+00 1.0000e+00
<mgrwt>
<rscale>  0 0.91557040E+02</rscale>
<asrwt>0</asrwt>
<pdfrwt beam="2">  1        4 0.23666466E-02 0.91557040E+02</pdfrwt>
<pdfrwt beam="1">  1       -4 0.20958653E-01 0.91557040E+02</pdfrwt>
<totfact> 0.23329129E+04</totfact>
</mgrwt>
</event>
<event>
 5      1 +1.6944000e+03 9.12806800e+01 7.81860800e-03 1.29978000e-01
        1 -1    0    0  501    0 +0.0000000000e+00 +0.0000000000e+00 +5.3719209350e+01 5.3719209350e+01 0.0000000000e+00 0.0000e+00 -1.0000e+00
       -1 -1    0    0    0  501 -0.0000000000e+00 -0.0000000000e+00 -3.8776459927e+01 3.8776459927e+01 0.0000000000e+00 0.0000e+00 1.0000e+00
       23  2    1    2    0    0 +0.0000000000e+00 +0.0000000000e+00 +1.4942749424e+01 9.2495669277e+01 9.1280682922e+01 0.0000e+00 0.0000e+00
      -11  1    3    3    0    0 +3.2608636531e+01 -2.5713464543e+01 +2.6658437615e+01 4.9347520012e+01 0.0000000000e+00 0.0000e+00 -1.0000e+00
       11  1    3    3    0    0 -3.2608636531e+01 +2.5713464543e+01 -1.1715688191e+01 4.3148149265e+01 0.0000000000e+00 0.0000e+00 1.0000e+00
<mgrwt>
<rscale>  0 0.91280683E+02</rscale>
<asrwt>0</asrwt>
<pdfrwt beam="1">  1        1 0.82644937E-02 0.91280683E+02</pdfrwt>
<pdfrwt beam="2">  1       -1 0.59656093E-02 0.91280683E+02</pdfrwt>
<totfact> 0.94478646E+04</totfact>
</mgrwt>
</event>
<event>
 5      1 +1.6944000e+03 9.12507800e+01 7.81860800e-03 1.29985100e-01
        2 -1    0    0  501    0 +0.0000000000e+00 +0.0000000000e+00 +1.7657173566e+02 1.7657173566e+02 0.0000000000e+00 0.0000e+00 -1.0000e+00
       -2 -1    0    0    0  501 -0.0000000000e+00 -0.0000000000e+00 -1.1789407667e+01 1.1789407667e+01 0.0000000000e+00 0.0000e+00 1.0000e+00
       23  2    1    2    0    0 +0.0000000000e+00 +0.0000000000e+00 +1.6478232799e+02 1.8836114333e+02 9.1250779156e+01 0.0000e+00 0.0000e+00
      -13  1    3    3    0    0 -2.7668287364e+01 +1.8902384352e+01 +1.8472418660e+01 3.8263095941e+01 0.0000000000e+00 0.0000e+00 1.0000e+00
       13  1    3    3    0    0 +2.7668287364e+01 -1.8902384352e+01 +1.4630990933e+02 1.5009804739e+02 0.0000000000e+00 0.0000e+00 -1.0000e+00
<mgrwt>
<rscale>  0 0.91250779E+02</rscale>
<asrwt>0</asrwt>
<pdfrwt beam="1">  1        2 0.27164880E-01 0.91250779E+02</pdfrwt>
<pdfrwt beam="2">  1       -2 0.18137552E-02 0.91250779E+02</pdfrwt>
<totfact> 0.14761118E+05</totfact>
</mgrwt>
</event>
<event>
 5      1 +1.6944000e+03 9.07486500e+01 7.81860800e-03 1.30104900e-01
        2 -1    0    0  501    0 +0.0000000000e+00 +0.0000000000e+00 +1.6740302437e+01 1.6740302437e+01 0.0000000000e+00 0.0000e+00 -1.0000e+00
       -2 -1    0    0    0  501 -0.0000000000e+00 -0.0000000000e+00 -1.2298638603e+02 1.2298638603e+02 0.0000000000e+00 0.0000e+00 1.0000e+00
       23  2    1    2    0    0 +0.0000000000e+00 +0.0000000000e+00 -1.0624608359e+02 1.3972668847e+02 9.0748648425e+01 0.0000e+00 0.0000e+00
      -13  1    3    3    0    0 +1.0860117848e+01 +4.3956080775e+01 -5.7677594502e+01 7.3326557974e+01 0.0000000000e+00 0.0000e+00 1.0000e+00
       13  1    3    3    0    0 -1.0860117848e+01 -4.3956080775e+01 -4.8568489091e+01 6.6400130492e+01 0.0000000000e+00 0.0000e+00 -1.0000e+00
<mgrwt>
<rscale>  0 0.90748648E+02</rscale>
<asrwt>0</asrwt>
<pdfrwt beam="1">  1        2 0.25754311E-02 0.90748648E+02</pdfrwt>
<pdfrwt beam="2">  1       -2 0.18920983E-01 0.90748648E+02</pdfrwt>
<totfact> 0.75705207E+04</totfact>
</mgrwt>
</event>
<event>
 5      1 +1.6944000e+03 9.63210900e+01 7.81860800e-03 1.28822800e-01
        3 -1    0    0  501    0 +0.0000000000e+00 +0.0000000000e+00 +4.4734591077e+02 4.4734591077e+02 0.0000000000e+00 0.0000e+00 -1.0000e+00
       -3 -1    0    0    0  501 -0.0000000000e+00 -0.0000000000e+00 -5.1848873257e+00 5.1848873257e+00 0.0000000000e+00 0.0000e+00 1.0000e+00
       23  2    1    2    0    0 +0.0000000000e+00 +0.0000000000e+00 +4.4216102344e+02 4.5253079809e+02 9.6321091002e+01 0.0000e+00 0.0000e+00
      -11  1    3    3    0    0 -2.9407327511e+01 -3.8139131176e+01 +2.2217129965e+02 2.2733119150e+02 0.0000000000e+00 0.0000e+00 1.0000e+00
       11  1    3    3    0    0 +2.9407327511e+01 +3.8139131176e+01 +2.1998972379e+02 2.2519960660e+02 0.0000000000e+00 0.0000e+00 -1.0000e+00
<mgrwt>
<rscale>  0 0.96321091E+02</rscale>
<asrwt>0</asrwt>
<pdfrwt beam="1">  1        3 0.68822418E-01 0.96321091E+02</pdfrwt>
<pdfrwt beam="2">  1       -3 0.79767532E-03 0.96321091E+02</pdfrwt>
<totfact> 0.16503475E+04</totfact>
</mgrwt>
</event>
<event>
 5      1 +1.6944000e+03 9.20449300e+01 7.81860800e-03 1.29797400e-01
       -3 -1    0    0    0  501 -0.0000000000e+00 +0.0000000000e+00 +2.3993354738e+02 2.3993354738e+02 0.0000000000e+00 0.0000e+00 1.0000e+00
        3 -1    0    0  501    0 +0.0000000000e+00 -0.0000000000e+00 -8.8277250338e+00 8.8277250338e+00 0.0000000000e+00 0.0000e+00 -1.0000e+00
       23  2    1    2    0    0 +0.0000000000e+00 +0.0000000000e+00 +2.3110582235e+02 2.4876127242e+02 9.2044932130e+01 0.0000e+00 0.0000e+00
      -11  1    3    3    0    0 +2.5759519349e+01 +3.5747235018e+01 +1.5147316376e+02 1.5775150392e+02 0.0000000000e+00 0.0000e+00 -1.0000e+00
       11  1    3    3    0    0 -2.5759519349e+01 -3.5747235018e+01 +7.9632658591e+01 9.1009768502e+01 0.0000000000e+00 0.0000e+00 1.0000e+00
<mgrwt>
<rscale>  0 0.92044932E+02</rscale>
<asrwt>0</asrwt>
<pdfrwt beam="2">  1        3 0.13581117E-02 0.92044932E+02</pdfrwt>
<pdfrwt beam="1">  1       -3 0.36912848E-01 0.92044932E+02</pdfrwt>
<totfact> 0.25495099E+04</totfact>
</mgrwt>
</event>
<event>
 5      1 +1.6944000e+03 9.76494400e+01 7.81860800e-03 1.28531800e-01
        1 -1    0    0  501    0 +0.0000000000e+00 +0.0000000000e+00 +2.9389038493e+02 2.9389038493e+02 0.0000000000e+00 0.0000e+00 -1.0000e+00
       -1 -1    0    0    0  501 -0.0000000000e+00 -0.0000000000e+00 -8.1113691032e+00 8.1113691032e+00 0.0000000000e+00 0.0000e+00 1.0000e+00
       23  2    1    2    0    0 +0.0000000000e+00 +0.0000000000e+00 +2.8577901583e+02 3.0200175404e+02 9.7649442150e+01 0.0000e+00 0.0000e+00
      -11  1    3    3    0    0 -4.4090188510e+01 -1.8324017950e+01 +1.7445019619e+02 1.8086620831e+02 0.0000000000e+00 0.0000e+00 -1.0000e+00
       11  1    3    3    0    0 +4.4090188510e+01 +1.8324017950e+01 +1.1132881964e+02 1.2113554573e+02 0.0000000000e+00 0.0000e+00 1.0000e+00
<mgrwt>
<rscale>  0 0.97649442E+02</rscale>
<asrwt>0</asrwt>
<pdfrwt beam="1">  1        1 0.45213897E-01 0.97649442E+02</pdfrwt>
<pdfrwt beam="2">  1       -1 0.12479032E-02 0.97649442E+02</pdfrwt>
<totfact> 0.10622024E+05</totfact>
</mgrwt>
</event>
<event>
 5      1 +1.6944000e+03 9.16604600e+01 7.81860800e-03 1.29888000e-01
       -1 -1    0    0    0  501 -0.0000000000e+00 +0.0000000000e+00 +1.1367758979e+01 1.1367758979e+01 0.0000000000e+00 0.0000e+00 1.0000e+00
        1 -1    0    0  501    0 +0.0000000000e+00 -0.0000000000e+00 -1.8476904537e+02 1.8476904537e+02 0.0000000000e+00 0.0000e+00 -1.0000e+00
       23  2    1    2    0    0 +0.0000000000e+00 +0.0000000000e+00 -1.7340128639e+02 1.9613680435e+02 9.1660459842e+01 0.0000e+00 0.0000e+00
      -13  1    3    3    0    0 +4.5360994962e+01 +4.7345782600e+00 -9.6359237580e+01 1.0660740482e+02 0.0000000000e+00 0.0000e+00 -1.0000e+00
       13  1    3    3    0    0 -4.5360994962e+01 -4.7345782600e+00 -7.7042048815e+01 8.9529399533e+01 0.0000000000e+00 0.0000e+00 1.0000e+00
<mgrwt>
<rscale>  0 0.91660460E+02</rscale>
<asrwt>0</asrwt>
<pdfrwt beam="2">  1        1 0.28426005E-01 0.91660460E+02</pdfrwt>
<pdfrwt beam="1">  1       -1 0.17488861E-02 0.91660460E+02</pdfrwt>
<totfact> 0.11496221E+05</totfact>
</mgrwt>
</event>
<event>
 5      1 +1.6944000e+03 8.82515000e+01 7.81860800e-03 1.30714200e-01
        1 -1    0    0  501    0 +0.0000000000e+00 +0.0000000000e+00 +2.7427571497e+02 2.7427571497e+02 0.0000000000e+00 0.0000e+00 -1.0000e+00
       -1 -1    0    0    0  501 -0.0000000000e+00 -0.0000000000e+00 -7.0989952075e+00 7.0989952075e+00 0.0000000000e+00 0.0000e+00 1.0000e+00
       23  2    1    2    0    0 +0.0000000000e+00 +0.0000000000e+00 +2.6717671977e+02 2.8137471018e+02 8.8251503922e+01 0.0000e+00 0.0000e+00
      -13  1    3    3    0    0 +2.5088917153e+01 -3.0965451515e+01 +7.3197610099e+01 8.3343884452e+01 0.0000000000e+00 0.0000e+00 -1.0000e+00
       13  1    3    3    0    0 -2.5088917153e+01 +3.0965451515e+01 +1.9397910967e+02 1.9803082573e+02 0.0000000000e+00 0.0000e+00 1.0000e+00
<mgrwt>
<rscale>  0 0.88251504E+02</rscale>
<asrwt>0</asrwt>
<pdfrwt beam="1">  1        1 0.42196256E-01 0.88251504E+02</pdfrwt>
<pdfrwt beam="2">  1       -1 0.10921533E-02 0.88251504E+02</pdfrwt>
<totfact> 0.13734615E+05</totfact>
</mgrwt>
</event>
<event>
 5      1 +1.6944000e+03 9.17138000e+01 7.81860800e-03 1.29875400e-01
        2 -1    0    0  501    0 +0.0000000000e+00 +0.0000000000e+00 +1.1112602088e+02 1.1112602088e+02 0.0000000000e+00 0.0000e+00 1.0000e+00
       -2 -1    0    0    0  501 -0.0000000000e+00 -0.0000000000e+00 -1.8923157601e+01 1.8923157601e+01 0.0000000000e+00 0.0000e+00 -1.0000e+00
       23  2    1    2    0    0 +0.0000000000e+00 +0.0000000000e+00 +9.2202863275e+01 1.3004917848e+02 9.1713798452e+01 0.0000e+00 0.0000e+00
      -13  1    3    3    0    0 +1.8017038015e+01 -2.2178733101e+00 +1.0581414486e+02 1.0735998265e+02 0.0000000000e+00 0.0000e+00 1.0000e+00
       13  1    3    3    0    0 -1.8017038015e+01 +2.2178733101e+00 -1.3611281590e+01 2.2689195829e+01 0.0000000000e+00 0.0000e+00 -1.0000e+00
<mgrwt>
<rscale>  0 0.91713798E+02</rscale>
<asrwt>0</asrwt>
<pdfrwt beam="1">  1        2 0.17096310E-01 0.91713798E+02</pdfrwt>
<pdfrwt beam="2">  1       -2 0.29112551E-02 0.91713798E+02</pdfrwt>
<totfact> 0.12471476E+05</totfact>
</mgrwt>
</event>
<event>
 5      1 +1.6944000e+03 9.16370300e+01 7.81860800e-03 1.29893500e-01
       -2 -1    0    0    0  501 -0.0000000000e+00 +0.0000000000e+00 +1.8545652401e+02 1.8545652401e+02 0.0000000000e+00 0.0000e+00 1.0000e+00
        2 -1    0    0  501    0 +0.0000000000e+00 -0.0000000000e+00 -1.1319829979e+01 1.1319829979e+01 0.0000000000e+00 0.0000e+00 -1.0000e+00
       23  2    1    2    0    0 +0.0000000000e+00 +0.0000000000e+00 +1.7413669403e+02 1.9677635399e+02 9.1637030079e+01 0.0000e+00 0.0000e+00
      -13  1    3    3    0    0 -3.2745238443e+01 +3.0135655393e+01 +6.3650666473e+01 7.7664764914e+01 0.0000000000e+00 0.0000e+00 -1.0000e+00
       13  1    3    3    0    0 +3.2745238443e+01 -3.0135655393e+01 +1.1048602756e+02 1.1911158908e+02 0.0000000000e+00 0.0000e+00 1.0000e+00
<mgrwt>
<rscale>  0 0.91637030E+02</rscale>
<asrwt>0</asrwt>
<pdfrwt beam="2">  1        2 0.17415124E-02 0.91637030E+02</pdfrwt>
<pdfrwt beam="1">  1       -2 0.28531771E-01 0.91637030E+02</pdfrwt>
<totfact> 0.63520727E+04</totfact>
</mgrwt>
</event>
<event>
 5      1 +1.6944000e+03 9.03546600e+01 7.81860800e-03 1.30199500e-01
        1 -1    0    0  501    0 +0.0000000000e+00 +0.0000000000e+00 +6.2878099834e+00 6.2878099834e+00 0.0000000000e+00 0.0000e+00 -1.0000e+00
       -1 -1    0    0    0  501 -0.0000000000e+00 -0.0000000000e+00 -3.2459494600e+02 3.2459494600e+02 0.0000000000e+00 0.0000e+00 1.0000e+00
       23  2    1    2    0    0 +0.0000000000e+00 +0.0000000000e+00 -3.1830713602e+02 3.3088275598e+02 9.0354664340e+01 0.0000e+00 0.0000e+00
      -13  1    3    3    0    0 -1.6593297174e+01 -4.1830871963e+01 -1.4458250629e+02 1.5142410801e+02 0.0000000000e+00 0.0000e+00 1.0000e+00
       13  1    3    3    0    0 +1.6593297174e+01 +4.1830871963e+01 -1.7372462972e+02 1.7945864797e+02 0.0000000000e+00 0.0000e+00 -1.0000e+00
<mgrwt>
<rscale>  0 0.90354664E+02</rscale>
<asrwt>0</asrwt>
<pdfrwt beam="1">  1        1 0.96735528E-03 0.90354664E+02</pdfrwt>
<pdfrwt beam="2">  1       -1 0.49937689E-01 0.90354664E+02</pdfrwt>
<totfact> 0.60081366E+04</totfact>
</mgrwt>
</event>
<event>
 5      1 +1.6944000e+03 9.92643000e+01 7.81860800e-03 1.28185100e-01
       -4 -1    0    0    0  501 -0.0000000000e+00 +0.0000000000e+00 +1.1891380393e+01 1.1891380393e+01 0.0000000000e+00 0.0000e+00 1.0000e+00
        4 -1    0    0  501    0 +0.0000000000e+00 -0.0000000000e+00 -2.0715429190e+02 2.0715429190e+02 0.0000000000e+00 0.0000e+00 -1.0000e+00
       23  2    1    2    0    0 +0.0000000000e+00 +0.0000000000e+00 -1.9526291151e+02 2.1904567229e+02 9.9264303455e+01 0.0000e+00 0.0000e+00
      -11  1    3    3    0    0 +3.5391182466e+01 -9.0159317468e+00 -2.3467990530e+01 4.3411627488e+01 0.0000000000e+00 0.0000e+00 1.0000e+00
       11  1    3    3    0    0 -3.5391182466e+01 +9.0159317468e+00 -1.7179492098e+02 1.7563404480e+02 0.0000000000e+00 0.0000e+00 -1.0000e+00
<mgrwt>
<rscale>  0 0.99264303E+02</rscale>
<asrwt>0</asrwt>
<pdfrwt beam="2">  1        4 0.31869890E-01 0.99264303E+02</pdfrwt>
<pdfrwt beam="1">  1       -4 0.18294432E-02 0.99264303E+02</pdfrwt>
<totfact> 0.16400737E+04</totfact>
</mgrwt>
</event>
<event>
 5      1 +1.6944000e+03 9.17535400e+01 7.81860800e-03 1.29866000e-01
        2 -1    0    0  501    0 +0.0000000000e+00 +0.0000000000e+00 +2.4503734232e+02 2.4503734232e+02 0.0000000000e+00 0.0000e+00 -1.0000e+00
       -2 -1    0    0    0  501 -0.0000000000e+00 -0.0000000000e+00 -8.5892132437e+00 8.5892132437e+00 0.0000000000e+00 0.0000e+00 1.0000e+00
       23  2    1    2    0    0 +0.0000000000e+00 +0.0000000000e+00 +2.3644812908e+02 2.5362655557e+02 9.1753539134e+01 0.0000e+00 0.0000e+00
      -11  1    3    3    0    0 +4.1851100955e+01 -1.3293179230e+01 +8.1505259478e+01 9.2581480803e+01 0.0000000000e+00 0.0000e+00 -1.0000e+00
       11  1    3    3    0    0 -4.1851100955e+01 +1.3293179230e+01 +1.5494286960e+02 1.6104507476e+02 0.0000000000e+00 0.0000e+00 1.0000e+00
<mgrwt>
<rscale>  0 0.91753539E+02</rscale>
<asrwt>0</asrwt>
<pdfrwt beam="1">  1        2 0.37698047E-01 0.91753539E+02</pdfrwt>
<pdfrwt beam="2">  1       -2 0.13214176E-02 0.91753539E+02</pdfrwt>
<totfact> 0.16382620E+05</totfact>
</mgrwt>
</event>
<event>
 5      1 +1.6944000e+03 9.01614800e+01 7.81860800e-03 1.30246100e-01
       -1 -1    0    0    0  501 -0.0000000000e+00 +0.0000000000e+00 +1.5797621365e+01 1.5797621365e+01 0.0000000000e+00 0.0000e+00 1.0000e+00
        1 -1    0    0  501    0 +0.0000000000e+00 -0.0000000000e+00 -1.2864423662e+02 1.2864423662e+02 0.0000000000e+00 0.0000e+00 -1.0000e+00
       23  2    1    2    0    0 +0.0000000000e+00 +0.0000000000e+00 -1.1284661525e+02 1.4444185798e+02 9.0161476049e+01 0.0000e+00 0.0000e+00
      -11  1    3    3    0    0 +1.2387396848e+01 +4.2627585215e+01 -4.3837965582e+01 6.2388507342e+01 0.0000000000e+00 0.0000e+00 1.0000e+00
       11  1    3    3    0    0 -1.2387396848e+01 -4.2627585215e+01 -6.9008649671e+01 8.2053350640e+01 0.0000000000e+00 0.0000e+00 -1.0000e+00
<mgrwt>
<rscale>  0 0.90161476E+02</rscale>
<asrwt>0</asrwt>
<pdfrwt beam="2">  1        1 0.19791420E-01 0.90161476E+02</pdfrwt>
<pdfrwt beam="1">  1       -1 0.24304034E-02 0.90161476E+02</pdfrwt>
<totfact> 0.11241673E+05</totfact>
</mgrwt>
</event>
<event>
 5      1 +1.6944000e+03 9.64129600e+01 7.81860800e-03 1.28802500e-01
       -1 -1    0    0    0  501 -0.0000000000e+00 +0.0000000000e+00 +3.3779010040e+01 3.3779010040e+01 0.0000000000e+00 0.0000e+00 1.0000e+00
        1 -1    0    0  501    0 +0.0000000000e+00 -0.0000000000e+00 -6.8796114231e+01 6.8796114231e+01 0.0000000000e+00 0.0000e+00 -1.0000e+00
       23  2    1    2    0    0 +0.0000000000e+00 +0.0000000000e+00 -3.5017104190e+01 1.0257512427e+02 9.6412958327e+01 0.0000e+00 0.0000e+00
      -11  1    3    3    0    0 -1.1282654787e+01 +1.9503997028e+01 -6.2848785132e+01 6.6765814544e+01 0.0000000000e+00 0.0000e+00 -1.0000e+00
       11  1    3    3    0    0 +1.1282654787e+01 -1.9503997028e+01 +2.7831680942e+01 3.5809309727e+01 0.0000000000e+00 0.0000e+00 1.0000e+00
<mgrwt>
<rscale>  0 0.96412958E+02</rscale>
<asrwt>0</asrwt>
<pdfrwt beam="2">  1        1 0.10584018E-01 0.96412958E+02</pdfrwt>
<pdfrwt beam="1">  1       -1 0.51967708E-02 0.96412958E+02</pdfrwt>
<totfact> 0.84287238E+04</totfact>
</mgrwt>
</event>
<event>
 4      1 +1.6944000e+03 3.91386300e+01 7.81860800e-03 1.51464800e-01
       -2 -1    0    0    0  501 -0.0000000000e+00 +0.0000000000e+00 +1.0302865613e+01 1.0302865613e+01 0.0000000000e+00 0.0000e+00 -1.0000e+00
        2 -1    0    0  501    0 +0.0000000000e+00 -0.0000000000e+00 -3.7170060000e+01 3.7170060000e+01 0.0000000000e+00 0.0000e+00 1.0000e+00
      -13  1    1    2    0    0 +1.8120066535e+01 -7.1339856621e+00 -1.5775415938e+01 2.5061809804e+01 0.0000000000e+00 0.0000e+00 1.0000e+00
       13  1    1    2    0    0 -1.8120066535e+01 +7.1339856621e+00 -1.1091778449e+01 2.2411115809e+01 0.0000000000e+00 0.0000e+00 -1.0000e+00
<mgrwt>
<rscale>  0 0.39138632E+02</rscale>
<asrwt>0</asrwt>
<pdfrwt beam="2">  1        2 0.57184709E-02 0.39138632E+02</pdfrwt>
<pdfrwt beam="1">  1       -2 0.15850562E-02 0.39138632E+02</pdfrwt>
<totfact> 0.90741528E+05</totfact>
</mgrwt>
</event>
<event>
 4      1 +1.6944000e+03 3.67869400e+01 7.81860800e-03 1.53328100e-01
        4 -1    0    0  501    0 +0.0000000000e+00 +0.0000000000e+00 +4.4085440293e+01 4.4085440293e+01 0.0000000000e+00 0.0000e+00 1.0000e+00
       -4 -1    0    0    0  501 -0.0000000000e+00 -0.0000000000e+00 -7.6741821630e+00 7.6741821630e+00 0.0000000000e+00 0.0000e+00 -1.0000e+00
      -11  1    1    2    0    0 +1.2927011177e+01 -5.9036257399e+00 +1.7755437651e+00 1.4321765621e+01 0.0000000000e+00 0.0000e+00 -1.0000e+00
       11  1    1    2    0    0 -1.2927011177e+01 +5.9036257399e+00 +3.4635714365e+01 3.7437856836e+01 0.0000000000e+00 0.0000e+00 1.0000e+00
<mgrwt>
<rscale>  0 0.36786938E+02</rscale>
<asrwt>0</asrwt>
<pdfrwt beam="1">  1        4 0.67823753E-02 0.36786938E+02</pdfrwt>
<pdfrwt beam="2">  1       -4 0.11806434E-02 0.36786938E+02</pdfrwt>
<totfact> 0.30110308E+05</totfact>
</mgrwt>
</event>
<event>
 4      1 +1.6944000e+03 3.83795700e+01 7.81860800e-03 1.52048600e-01
        2 -1    0    0  501    0 +0.0000000000e+00 +0.0000000000e+00 +1.0107466444e+02 1.0107466444e+02 0.0000000000e+00 0.0000e+00 1.0000e+00
       -2 -1    0    0    0  501 -0.0000000000e+00 -0.0000000000e+00 -3.6433243248e+00 3.6433243248e+00 0.0000000000e+00 0.0000e+00 -1.0000e+00
      -11  1    1    2    0    0 +9.3929534140e-01 +1.9145693561e+01 +4.6263181485e+01 5.0077158653e+01 0.0000000000e+00 0.0000e+00 1.0000e+00
       11  1    1    2    0    0 -9.3929534140e-01 -1.9145693561e+01 +5.1168158628e+01 5.4640830110e+01 0.0000000000e+00 0.0000e+00 -1.0000e+00
<mgrwt>
<rscale>  0 0.38379567E+02</rscale>
<asrwt>0</asrwt>
<pdfrwt beam="1">  1        2 0.15549946E-01 0.38379567E+02</pdfrwt>
<pdfrwt beam="2">  1       -2 0.56051151E-03 0.38379567E+02</pdfrwt>
<totfact> 0.11593654E+06</totfact>
</mgrwt>
</event>
<event>
 5      1 +1.6944000e+03 9.08573900e+01 7.81860800e-03 1.30078900e-01
        2 -1    0    0  501    0 +0.0000000000e+00 +0.0000000000e+00 +1.7415456722e+02 1.7415456722e+02 0.0000000000e+00 0.0000e+00 -1.0000e+00
       -2 -1    0    0    0  501 -0.0000000000e+00 -0.0000000000e+00 -1.1850199797e+01 1.1850199797e+01 0.0000000000e+00 0.0000e+00 1.0000e+00
       23  2    1    2    0    0 +0.0000000000e+00 +0.0000000000e+00 +1.6230436742e+02 1.8600476702e+02 9.0857391929e+01 0.0000e+00 0.0000e+00
      -13  1    3    3    0    0 -2.6434530363e+01 -3.5546381326e+01 +1.0177089751e+02 1.1099389713e+02 0.0000000000e+00 0.0000e+00 1.0000e+00
       13  1    3    3    0    0 +2.6434530363e+01 +3.5546381326e+01 +6.0533469914e+01 7.5010869883e+01 0.0000000000e+00 0.0000e+00 -1.0000e+00
<mgrwt>
<rscale>  0 0.90857392E+02</rscale>
<asrwt>0</asrwt>
<pdfrwt beam="1">  1        2 0.26793009E-01 0.90857392E+02</pdfrwt>
<pdfrwt beam="2">  1       -2 0.18231078E-02 0.90857392E+02</pdfrwt>
<totfact> 0.14862163E+05</totfact>
</mgrwt>
</event>
<event>
 4      1 +1.6944000e+03 2.70326100e+01 7.81860800e-03 1.63341400e-01
       -1 -1    0    0    0  501 -0.0000000000e+00 +0.0000000000e+00 +3.6869187059e+00 3.6869187059e+00 0.0000000000e+00 0.0000e+00 -1.0000e+00
        1 -1    0    0  501    0 +0.0000000000e+00 -0.0000000000e+00 -4.9550990571e+01 4.9550990571e+01 0.0000000000e+00 0.0000e+00 1.0000e+00
      -13  1    1    2    0    0 -4.6711262494e+00 +1.2593727285e+01 -1.9965438701e+01 2.4063252687e+01 0.0000000000e+00 0.0000e+00 -1.0000e+00
       13  1    1    2    0    0 +4.6711262494e+00 -1.2593727285e+01 -2.5898633164e+01 2.9174656590e+01 0.0000000000e+00 0.0000e+00 1.0000e+00
<mgrwt>
<rscale>  0 0.27032608E+02</rscale>
<asrwt>0</asrwt>
<pdfrwt beam="2">  1        1 0.76232287E-02 0.27032608E+02</pdfrwt>
<pdfrwt beam="1">  1       -1 0.56721831E-03 0.27032608E+02</pdfrwt>
<totfact> 0.20963234E+06</totfact>
</mgrwt>
</event>
<event>
 5      1 +1.6944000e+03 9.44945100e+01 7.81860800e-03 1.29231900e-01
        1 -1    0    0  501    0 +0.0000000000e+00 +0.0000000000e+00 +3.9611827951e+02 3.9611827951e+02 0.0000000000e+00 0.0000e+00 -1.0000e+00
       -1 -1    0    0    0  501 -0.0000000000e+00 -0.0000000000e+00 -5.6354464049e+00 5.6354464049e+00 0.0000000000e+00 0.0000e+00 1.0000e+00
       23  2    1    2    0    0 +0.0000000000e+00 +0.0000000000e+00 +3.9048283310e+02 4.0175372591e+02 9.4494514850e+01 0.0000e+00 0.0000e+00
      -13  1    3    3    0    0 -4.4423082522e+01 -6.2207665689e+00 +2.5833092953e+02 2.6219644801e+02 0.0000000000e+00 0.0000e+00 -1.0000e+00
       13  1    3    3    0    0 +4.4423082522e+01 +6.2207665689e+00 +1.3215190357e+02 1.3955727790e+02 0.0000000000e+00 0.0000e+00 1.0000e+00
<mgrwt>
<rscale>  0 0.94494515E+02</rscale>
<asrwt>0</asrwt>
<pdfrwt beam="1">  1        1 0.60941252E-01 0.94494515E+02</pdfrwt>
<pdfrwt beam="2">  1       -1 0.86699207E-03 0.94494515E+02</pdfrwt>
<totfact> 0.12245477E+05</totfact>
</mgrwt>
</event>
<event>
 5      1 +1.6944000e+03 9.26138700e+01 7.81860800e-03 1.29664300e-01
        1 -1    0    0  501    0 +0.0000000000e+00 +0.0000000000e+00 +3.0058982068e+01 3.0058982068e+01 0.0000000000e+00 0.0000e+00 -1.0000e+00
       -1 -1    0    0    0  501 -0.0000000000e+00 -0.0000000000e+00 -7.1337482535e+01 7.1337482535e+01 0.0000000000e+00 0.0000e+00 1.0000e+00
       23  2    1    2    0    0 +0.0000000000e+00 +0.0000000000e+00 -4.1278500468e+01 1.0139646460e+02 9.2613867391e+01 0.0000e+00 0.0000e+00
      -13  1    3    3    0    0 -2.7756958940e+01 +1.6658603474e+01 -5.6890769317e+01 6.5456225623e+01 0.0000000000e+00 0.0000e+00 1.0000e+00
       13  1    3    3    0    0 +2.7756958940e+01 -1.6658603474e+01 +1.5612268850e+01 3.5940238980e+01 0.0000000000e+00 0.0000e+00 -1.0000e+00
<mgrwt>
<rscale>  0 0.92613867E+02</rscale>
<asrwt>0</asrwt>
<pdfrwt beam="1">  1        1 0.46244588E-02 0.92613867E+02</pdfrwt>
<pdfrwt beam="2">  1       -1 0.10974997E-01 0.92613867E+02</pdfrwt>
<totfact> 0.82896356E+04</totfact>
</mgrwt>
</event>
<event>
 5      1 +1.6944000e+03 9.16098400e+01 7.81860800e-03 1.29899900e-01
        2 -1    0    0  501    0 +0.0000000000e+00 +0.0000000000e+00 +5.1459373004e+01 5.1459373004e+01 0.0000000000e+00 0.0000e+00 -1.0000e+00
       -2 -1    0    0    0  501 -0.0000000000e+00 -0.0000000000e+00 -4.0771784613e+01 4.0771784613e+01 0.0000000000e+00 0.0000e+00 1.0000e+00
       23  2    1    2    0    0 +0.0000000000e+00 +0.0000000000e+00 +1.0687588391e+01 9.2231157617e+01 9.1609835114e+01 0.0000e+00 0.0000e+00
      -13  1    3    3    0    0 +4.3602129703e+01 +6.9153438326e+00 +1.7638200176e+01 4.7540233491e+01 0.0000000000e+00 0.0000e+00 -1.0000e+00
       13  1    3    3    0    0 -4.3602129703e+01 -6.9153438326e+00 -6.9506117850e+00 4.4690924125e+01 0.0000000000e+00 0.0000e+00 1.0000e+00
<mgrwt>
<rscale>  0 0.91609835E+02</rscale>
<asrwt>0</asrwt>
<pdfrwt beam="1">  1        2 0.79168267E-02 0.91609835E+02</pdfrwt>
<pdfrwt beam="2">  1       -2 0.62725822E-02 0.91609835E+02</pdfrwt>
<totfact> 0.10047513E+05</totfact>
</mgrwt>
</event>
<event>
 5      1 +1.6944000e+03 9.06346900e+01 7.81860800e-03 1.30132200e-01
        2 -1    0    0  501    0 +0.0000000000e+00 +0.0000000000e+00 +4.6629750128e+01 4.6629750128e+01 0.0000000000e+00 0.0000e+00 -1.0000e+00
       -2 -1    0    0    0  501 -0.0000000000e+00 -0.0000000000e+00 -4.4041874581e+01 4.4041874581e+01 0.0000000000e+00 0.0000e+00 1.0000e+00
       23  2    1    2    0    0 +0.0000000000e+00 +0.0000000000e+00 +2.5878755463e+00 9.0671624709e+01 9.0634686669e+01 0.0000e+00 0.0000e+00
      -11  1    3    3    0    0 +7.6830817396e-01 -4.5309289683e+01 +1.6676912801e+00 4.5346479722e+01 0.0000000000e+00 0.0000e+00 1.0000e+00
       11  1    3    3    0    0 -7.6830817396e-01 +4.5309289683e+01 +9.2018426622e-01 4.5325144987e+01 0.0000000000e+00 0.0000e+00 -1.0000e+00
<mgrwt>
<rscale>  0 0.90634687E+02</rscale>
<asrwt>0</asrwt>
<pdfrwt beam="1">  1        2 0.71738077E-02 0.90634687E+02</pdfrwt>
<pdfrwt beam="2">  1       -2 0.67756730E-02 0.90634687E+02</pdfrwt>
<totfact> 0.10096406E+05</totfact>
</mgrwt>
</event>
<event>
 4      1 +1.6944000e+03 3.67472500e+01 7.81860800e-03 1.53361000e-01
       -2 -1    0    0    0  501 -0.0000000000e+00 +0.0000000000e+00 +8.9020046949e+00 8.9020046949e+00 0.0000000000e+00 0.0000e+00 1.0000e+00
        2 -1    0    0  501    0 +0.0000000000e+00 -0.0000000000e+00 -3.7922927542e+01 3.7922927542e+01 0.0000000000e+00 0.0000e+00 -1.0000e+00
      -11  1    1    2    0    0 -1.1023462290e+01 -1.3005544243e+01 -2.3239648354e+01 2.8822598036e+01 0.0000000000e+00 0.0000e+00 -1.0000e+00
       11  1    1    2    0    0 +1.1023462290e+01 +1.3005544243e+01 -5.7812744923e+00 1.8002334200e+01 0.0000000000e+00 0.0000e+00 1.0000e+00
<mgrwt>
<rscale>  0 0.36747249E+02</rscale>
<asrwt>0</asrwt>
<pdfrwt beam="2">  1        2 0.58342964E-02 0.36747249E+02</pdfrwt>
<pdfrwt beam="1">  1       -2 0.13695392E-02 0.36747249E+02</pdfrwt>
<totfact> 0.10645503E+06</totfact>
</mgrwt>
</event>
<event>
 4      1 +1.6944000e+03 2.42305500e+01 7.81860800e-03 1.67230600e-01
       -2 -1    0    0    0  501 -0.0000000000e+00 +0.0000000000e+00 +1.1532595637e+02 1.1532595637e+02 0.0000000000e+00 0.0000e+00 -1.0000e+00
        2 -1    0    0  501    0 +0.0000000000e+00 -0.0000000000e+00 -1.2727398456e+00 1.2727398456e+00 0.0000000000e+00 0.0000e+00 1.0000e+00
      -13  1    1    2    0    0 -1.1995742239e+01 -4.6219093724e-01 +4.9165877181e+01 5.0610225561e+01 0.0000000000e+00 0.0000e+00 -1.0000e+00
       13  1    1    2    0    0 +1.1995742239e+01 +4.6219093724e-01 +6.4887339348e+01 6.5988470660e+01 0.0000000000e+00 0.0000e+00 1.0000e+00
<mgrwt>
<rscale>  0 0.24230554E+02</rscale>
<asrwt>0</asrwt>
<pdfrwt beam="2">  1        2 0.19580622E-03 0.24230554E+02</pdfrwt>
<pdfrwt beam="1">  1       -2 0.17742447E-01 0.24230554E+02</pdfrwt>
<totfact> 0.18734646E+06</totfact>
</mgrwt>
</event>
<event>
 5      1 +1.6944000e+03 9.20583500e+01 7.81860800e-03 1.29794200e-01
       -3 -1    0    0    0  501 -0.0000000000e+00 +0.0000000000e+00 +6.6390981217e+01 6.6390981217e+01 0.0000000000e+00 0.0000e+00 1.0000e+00
        3 -1    0    0  501    0 +0.0000000000e+00 -0.0000000000e+00 -3.1912239877e+01 3.1912239877e+01 0.0000000000e+00 0.0000e+00 -1.0000e+00
       23  2    1    2    0    0 +0.0000000000e+00 +0.0000000000e+00 +3.4478741340e+01 9.8303221094e+01 9.2058349284e+01 0.0000e+00 0.0000e+00
      -11  1    3    3    0    0 +1.8641496911e+01 +3.5865308362e+01 -6.2738636037e+00 4.0904609954e+01 0.0000000000e+00 0.0000e+00 -1.0000e+00
       11  1    3    3    0    0 -1.8641496911e+01 -3.5865308362e+01 +4.0752604944e+01 5.7398611139e+01 0.0000000000e+00 0.0000e+00 1.0000e+00
<mgrwt>
<rscale>  0 0.92058349E+02</rscale>
<asrwt>0</asrwt>
<pdfrwt beam="2">  1        3 0.49095754E-02 0.92058349E+02</pdfrwt>
<pdfrwt beam="1">  1       -3 0.10213997E-01 0.92058349E+02</pdfrwt>
<totfact> 0.33896832E+04</totfact>
</mgrwt>
</event>
<event>
 5      1 +1.6944000e+03 8.70918800e+01 7.81860800e-03 1.31005100e-01
        4 -1    0    0  501    0 +0.0000000000e+00 +0.0000000000e+00 +1.5501429562e+02 1.5501429562e+02 0.0000000000e+00 0.0000e+00 -1.0000e+00
       -4 -1    0    0    0  501 -0.0000000000e+00 -0.0000000000e+00 -1.2232735065e+01 1.2232735065e+01 0.0000000000e+00 0.0000e+00 1.0000e+00
       23  2    1    2    0    0 +0.0000000000e+00 +0.0000000000e+00 +1.4278156056e+02 1.6724703069e+02 8.7091878142e+01 0.0000e+00 0.0000e+00
      -11  1    3    3    0    0 +3.4650450568e+01 -1.5236435561e+01 +1.1273172371e+02 1.1891696357e+02 0.0000000000e+00 0.0000e+00 -1.0000e+00
       11  1    3    3    0    0 -3.4650450568e+01 +1.5236435561e+01 +3.0049836842e+01 4.8330067116e+01 0.0000000000e+00 0.0000e+00 1.0000e+00
<mgrwt>
<rscale>  0 0.87091878E+02</rscale>
<asrwt>0</asrwt>
<pdfrwt beam="1">  1        4 0.23848352E-01 0.87091878E+02</pdfrwt>
<pdfrwt beam="2">  1       -4 0.18819594E-02 0.87091878E+02</pdfrwt>
<totfact> 0.25812163E+04</totfact>
</mgrwt>
</event>
<event>
 5      1 +1.6944000e+03 9.37293100e+01 7.81860800e-03 1.29406400e-01
        2 -1    0    0  501    0 +0.0000000000e+00 +0.0000000000e+00 +4.2831957464e+02 4.2831957464e+02 0.0000000000e+00 0.0000e+00 -1.0000e+00
       -2 -1    0    0    0  501 -0.0000000000e+00 -0.0000000000e+00 -5.1277039101e+00 5.1277039101e+00 0.0000000000e+00 0.0000e+00 1.0000e+00
       23  2    1    2    0    0 +0.0000000000e+00 +0.0000000000e+00 +4.2319187073e+02 4.3344727855e+02 9.3729311481e+01 0.0000e+00 0.0000e+00
      -13  1    3    3    0    0 +1.3164960899e+01 -4.4833329619e+01 +1.9495282111e+02 2.0047430284e+02 0.0000000000e+00 0.0000e+00 1.0000e+00
       13  1    3    3    0    0 -1.3164960899e+01 +4.4833329619e+01 +2.2823904962e+02 2.3297297571e+02 0.0000000000e+00 0.0000e+00 -1.0000e+00
<mgrwt>
<rscale>  0 0.93729311E+02</rscale>
<asrwt>0</asrwt>
<pdfrwt beam="1">  1        2 0.65895291E-01 0.93729311E+02</pdfrwt>
<pdfrwt beam="2">  1       -2 0.78887786E-03 0.93729311E+02</pdfrwt>
<totfact> 0.19004589E+05</totfact>
</mgrwt>
</event>
<event>
 5      1 +1.6944000e+03 9.15354500e+01 7.81860800e-03 1.29917500e-01
       -1 -1    0    0    0  501 -0.0000000000e+00 +0.0000000000e+00 +1.3256808840e+01 1.3256808840e+01 0.0000000000e+00 0.0000e+00 1.0000e+00
        1 -1    0    0  501    0 +0.0000000000e+00 -0.0000000000e+00 -1.5800819793e+02 1.5800819793e+02 0.0000000000e+00 0.0000e+00 -1.0000e+00
       23  2    1    2    0    0 +0.0000000000e+00 +0.0000000000e+00 -1.4475138909e+02 1.7126500677e+02 9.1535446142e+01 0.0000e+00 0.0000e+00
      -11  1    3    3    0    0 +4.2064134380e+01 +1.7796160218e+01 -6.6892044483e+01 8.0997779814e+01 0.0000000000e+00 0.0000e+00 1.0000e+00
       11  1    3    3    0    0 -4.2064134380e+01 -1.7796160218e+01 -7.7859344610e+01 9.0267226959e+01 0.0000000000e+00 0.0000e+00 -1.0000e+00
<mgrwt>
<rscale>  0 0.91535446E+02</rscale>
<asrwt>0</asrwt>
<pdfrwt beam="2">  1        1 0.24308953E-01 0.91535446E+02</pdfrwt>
<pdfrwt beam="1">  1       -1 0.20395091E-02 0.91535446E+02</pdfrwt>
<totfact> 0.11202347E+05</totfact>
</mgrwt>
</event>
<event>
 5      1 +1.6944000e+03 9.05199300e+01 7.81860800e-03 1.30159700e-01
        2 -1    0    0  501    0 +0.0000000000e+00 +0.0000000000e+00 +1.6737306591e+02 1.6737306591e+02 0.0000000000e+00 0.0000e+00 -1.0000e+00
       -2 -1    0    0    0  501 -0.0000000000e+00 -0.0000000000e+00 -1.2238913395e+01 1.2238913395e+01 0.0000000000e+00 0.0000e+00 1.0000e+00
       23  2    1    2    0    0 +0.0000000000e+00 +0.0000000000e+00 +1.5513415252e+02 1.7961197931e+02 9.0519930586e+01 0.0000e+00 0.0000e+00
      -13  1    3    3    0    0 -5.0682862591e-01 +4.4448223856e+01 +9.4469486525e+01 1.0440491063e+02 0.0000000000e+00 0.0000e+00 -1.0000e+00
       13  1    3    3    0    0 +5.0682862591e-01 -4.4448223856e+01 +6.0664665993e+01 7.5207068678e+01 0.0000000000e+00 0.0000e+00 1.0000e+00
<mgrwt>
<rscale>  0 0.90519931E+02</rscale>
<asrwt>0</asrwt>
<pdfrwt beam="1">  1        2 0.25749701E-01 0.90519931E+02</pdfrwt>
<pdfrwt beam="2">  1       -2 0.18829099E-02 0.90519931E+02</pdfrwt>
<totfact> 0.14805226E+05</totfact>
</mgrwt>
</event>
<event>
 5      1 +1.6944000e+03 9.08416000e+01 7.81860800e-03 1.30082600e-01
       -2 -1    0    0    0  501 -0.0000000000e+00 +0.0000000000e+00 +1.1630050045e+01 1.1630050045e+01 0.0000000000e+00 0.0000e+00 -1.0000e+00
        2 -1    0    0  501    0 +0.0000000000e+00 -0.0000000000e+00 -1.7738951563e+02 1.7738951563e+02 0.0000000000e+00 0.0000e+00 1.0000e+00
       23  2    1    2    0    0 +0.0000000000e+00 +0.0000000000e+00 -1.6575946558e+02 1.8901956568e+02 9.0841597173e+01 0.0000e+00 0.0000e+00
      -11  1    3    3    0    0 +1.4744405782e+01 -2.6073789232e+01 -1.5392508858e+02 1.5681254057e+02 0.0000000000e+00 0.0000e+00 1.0000e+00
       11  1    3    3    0    0 -1.4744405782e+01 +2.6073789232e+01 -1.1834377005e+01 3.2207025102e+01 0.0000000000e+00 0.0000e+00 -1.0000e+00
<mgrwt>
<rscale>  0 0.90841597E+02</rscale>
<asrwt>0</asrwt>
<pdfrwt beam="2">  1        2 0.27290694E-01 0.90841597E+02</pdfrwt>
<pdfrwt beam="1">  1       -2 0.17892385E-02 0.90841597E+02</pdfrwt>
<totfact> 0.14965800E+05</totfact>
</mgrwt>
</event>
<event>
 5      1 +1.6944000e+03 9.40471900e+01 7.81860800e-03 1.29333700e-01
        2 -1    0    0  501    0 +0.0000000000e+00 +0.0000000000e+00 +1.3462786191e+02 1.3462786191e+02 0.0000000000e+00 0.0000e+00 -1.0000e+00
       -2 -1    0    0    0  501 -0.0000000000e+00 -0.0000000000e+00 -1.6424672308e+01 1.6424672308e+01 0.0000000000e+00 0.0000e+00 1.0000e+00
       23  2    1    2    0    0 +0.0000000000e+00 +0.0000000000e+00 +1.1820318960e+02 1.5105253422e+02 9.4047190610e+01 0.0000e+00 0.0000e+00
      -13  1    3    3    0    0 -2.5905785170e+00 +4.3475936862e+01 +3.0624928178e+01 5.3242411751e+01 0.0000000000e+00 0.0000e+00 -1.0000e+00
       13  1    3    3    0    0 +2.5905785170e+00 -4.3475936862e+01 +8.7578261422e+01 9.7810122466e+01 0.0000000000e+00 0.0000e+00 1.0000e+00
<mgrwt>
<rscale>  0 0.94047191E+02</rscale>
<asrwt>0</asrwt>
<pdfrwt beam="1">  1        2 0.20711978E-01 0.94047191E+02</pdfrwt>
<pdfrwt beam="2">  1       -2 0.25268727E-02 0.94047191E+02</pdfrwt>
<totfact> 0.12388202E+05</totfact>
</mgrwt>
</event>
<event>
 4      1 +1.6944000e+03 3.61006600e+01 7.81860800e-03 1.53903800e-01
        3 -1    0    0  501    0 +0.0000000000e+00 +0.0000000000e+00 +4.4856156152e+00 4.4856156152e+00 0.0000000000e+00 0.0000e+00 1.0000e+00
       -3 -1    0    0    0  501 -0.0000000000e+00 -0.0000000000e+00 -7.2635394583e+01 7.2635394583e+01 0.0000000000e+00 0.0000e+00 -1.0000e+00
      -13  1    1    2    0    0 -1.3695618175e+01 -3.0336926108e+00 -5.8342205931e+01 6.0004885143e+01 0.0000000000e+00 0.0000e+00 -1.0000e+00
       13  1    1    2    0    0 +1.3695618175e+01 +3.0336926108e+00 -9.8075730368e+00 1.7116125056e+01 0.0000000000e+00 0.0000e+00 1.0000e+00
<mgrwt>
<rscale>  0 0.36100663E+02</rscale>
<asrwt>0</asrwt>
<pdfrwt beam="1">  1        3 0.69009476E-03 0.36100663E+02</pdfrwt>
<pdfrwt beam="2">  1       -3 0.11174675E-01 0.36100663E+02</pdfrwt>
<totfact> 0.39233366E+05</totfact>
</mgrwt>
</event>
<event>
 5      1 +1.6944000e+03 1.09667700e+02 7.81860800e-03 1.26118700e-01
        1 -1    0    0  501    0 +0.0000000000e+00 +0.0000000000e+00 +9.4207508784e+01 9.4207508784e+01 0.0000000000e+00 0.0000e+00 -1.0000e+00
       -1 -1    0    0    0  501 -0.0000000000e+00 -0.0000000000e+00 -3.1916240316e+01 3.1916240316e+01 0.0000000000e+00 0.0000e+00 1.0000e+00
       23  2    1    2    0    0 +0.0000000000e+00 +0.0000000000e+00 +6.2291268467e+01 1.2612374910e+02 1.0966767053e+02 0.0000e+00 0.0000e+00
      -11  1    3    3    0    0 -4.6724985725e+01 -1.6629927276e+01 +4.2488541728e+00 4.9777821708e+01 0.0000000000e+00 0.0000e+00 1.0000e+00
       11  1    3    3    0    0 +4.6724985725e+01 +1.6629927276e+01 +5.8042414294e+01 7.6345927392e+01 0.0000000000e+00 0.0000e+00 -1.0000e+00
<mgrwt>
<rscale>  0 0.10966767E+03</rscale>
<asrwt>0</asrwt>
<pdfrwt beam="1">  1        1 0.14493463E-01 0.10966767E+03</pdfrwt>
<pdfrwt beam="2">  1       -1 0.49101909E-02 0.10966767E+03</pdfrwt>
<totfact> 0.62059336E+04</totfact>
</mgrwt>
</event>
<event>
 5      1 +1.6944000e+03 9.05691400e+01 7.81860800e-03 1.30147900e-01
        2 -1    0    0  501    0 +0.0000000000e+00 +0.0000000000e+00 +3.4437428742e+01 3.4437428742e+01 0.0000000000e+00 0.0000e+00 -1.0000e+00
       -2 -1    0    0    0  501 -0.0000000000e+00 -0.0000000000e+00 -5.9548355060e+01 5.9548355060e+01 0.0000000000e+00 0.0000e+00 1.0000e+00
       23  2    1    2    0    0 +0.0000000000e+00 +0.0000000000e+00 -2.5110926318e+01 9.3985783802e+01 9.0569138984e+01 0.0000e+00 0.0000e+00
      -13  1    3    3    0    0 -2.1877145976e+00 -1.5617250275e+01 +3.1495990230e+01 3.5223316168e+01 0.0000000000e+00 0.0000e+00 -1.0000e+00
       13  1    3    3    0    0 +2.1877145976e+00 +1.5617250275e+01 -5.6606916548e+01 5.8762467634e+01 0.0000000000e+00 0.0000e+00 1.0000e+00
<mgrwt>
<rscale>  0 0.90569139E+02</rscale>
<asrwt>0</asrwt>
<pdfrwt beam="1">  1        2 0.52980660E-02 0.90569139E+02</pdfrwt>
<pdfrwt beam="2">  1       -2 0.91612854E-02 0.90569139E+02</pdfrwt>
<totfact> 0.93562576E+04</totfact>
</mgrwt>
</event>
<event>
 4      1 +1.6944000e+03 1.06020000e+02 7.81860800e-03 1.26812300e-01
        2 -1    0    0  501    0 +0.0000000000e+00 +0.0000000000e+00 +1.9954818859e+01 1.9954818859e+01 0.0000000000e+00 0.0000e+00 -1.0000e+00
       -2 -1    0    0    0  501 -0.0000000000e+00 -0.0000000000e+00 -1.4082106167e+02 1.4082106167e+02 0.0000000000e+00 0.0000e+00 1.0000e+00
      -11  1    1    2    0    0 +2.4310190082e+01 -3.9561356832e+01 -9.9213579589e+01 1.0954186721e+02 0.0000000000e+00 0.0000e+00 1.0000e+00
       11  1    1    2    0    0 -2.4310190082e+01 +3.9561356832e+01 -2.1652663219e+01 5.1234013319e+01 0.0000000000e+00 0.0000e+00 -1.0000e+00
<mgrwt>
<rscale>  0 0.10601998E+03</rscale>
<asrwt>0</asrwt>
<pdfrwt beam="1">  1        2 0.30699722E-02 0.10601998E+03</pdfrwt>
<pdfrwt beam="2">  1       -2 0.21664779E-01 0.10601998E+03</pdfrwt>
<totfact> 0.48812244E+04</totfact>
</mgrwt>
</event>
<event>
 4      1 +1.6944000e+03 2.47054100e+01 7.81860800e-03 1.66527000e-01
       -2 -1    0    0    0  501 -0.0000000000e+00 +0.0000000000e+00 +2.9193726536e+00 2.9193726536e+00 0.0000000000e+00 0.0000e+00 -1.0000e+00
        2 -1    0    0  501    0 +0.0000000000e+00 -0.0000000000e+00 -5.2267827555e+01 5.2267827555e+01 0.0000000000e+00 0.0000e+00 1.0000e+00
      -13  1    1    2    0    0 -7.5245834405e+00 -7.2430117825e+00 -3.9408692776e+01 4.0769175145e+01 0.0000000000e+00 0.0000e+00 1.0000e+00
       13  1    1    2    0    0 +7.5245834405e+00 +7.2430117825e+00 -9.9397621246e+00 1.4418025063e+01 0.0000000000e+00 0.0000e+00 -1.0000e+00
<mgrwt>
<rscale>  0 0.24705406E+02</rscale>
<asrwt>0</asrwt>
<pdfrwt beam="2">  1        2 0.80412040E-02 0.24705406E+02</pdfrwt>
<pdfrwt beam="1">  1       -2 0.44913427E-03 0.24705406E+02</pdfrwt>
<totfact> 0.28882407E+06</totfact>
</mgrwt>
</event>
<event>
 5      1 +1.6944000e+03 9.22692000e+01 7.81860800e-03 1.29744800e-01
        1 -1    0    0  501    0 +0.0000000000e+00 +0.0000000000e+00 +7.4207724030e+01 7.4207724030e+01 0.0000000000e+00 0.0000e+00 -1.0000e+00
       -1 -1    0    0    0  501 -0.0000000000e+00 -0.0000000000e+00 -2.8681668281e+01 2.8681668281e+01 0.0000000000e+00 0.0000e+00 1.0000e+00
       23  2    1    2    0    0 +0.0000000000e+00 +0.0000000000e+00 +4.5526055749e+01 1.0288939231e+02 9.2269200159e+01 0.0000e+00 0.0000e+00
      -13  1    3    3    0    0 +2.5327490597e+01 -1.1924742515e+01 -1.8128165770e+01 3.3351336678e+01 0.0000000000e+00 0.0000e+00 1.0000e+00
       13  1    3    3    0    0 -2.5327490597e+01 +1.1924742515e+01 +6.3654221519e+01 6.9538055633e+01 0.0000000000e+00 0.0000e+00 -1.0000e+00
<mgrwt>
<rscale>  0 0.92269200E+02</rscale>
<asrwt>0</asrwt>
<pdfrwt beam="1">  1        1 0.11416573E-01 0.92269200E+02</pdfrwt>
<pdfrwt beam="2">  1       -1 0.44125644E-02 0.92269200E+02</pdfrwt>
<totfact> 0.96347944E+04</totfact>
</mgrwt>
</event>
<event>
 5      1 +1.6944000e+03 9.10766200e+01 7.81860800e-03 1.30026500e-01
       -1 -1    0    0    0  501 -0.0000000000e+00 +0.0000000000e+00 +6.4405349121e+01 6.4405349121e+01 0.0000000000e+00 0.0000e+00 1.0000e+00
        1 -1    0    0  501    0 +0.0000000000e+00 -0.0000000000e+00 -3.2198222366e+01 3.2198222366e+01 0.0000000000e+00 0.0000e+00 -1.0000e+00
       23  2    1    2    0    0 +0.0000000000e+00 +0.0000000000e+00 +3.2207126755e+01 9.6603571488e+01 9.1076621645e+01 0.0000e+00 0.0000e+00
      -11  1    3    3    0    0 -1.5151458006e+01 -7.4418967639e+00 +6.0964243927e+01 6.3258102602e+01 0.0000000000e+00 0.0000e+00 1.0000e+00
       11  1    3    3    0    0 +1.5151458006e+01 +7.4418967639e+00 -2.8757117172e+01 3.3345468886e+01 0.0000000000e+00 0.0000e+00 -1.0000e+00
<mgrwt>
<rscale>  0 0.91076622E+02</rscale>
<asrwt>0</asrwt>
<pdfrwt beam="2">  1        1 0.49535727E-02 0.91076622E+02</pdfrwt>
<pdfrwt beam="1">  1       -1 0.99085152E-02 0.91076622E+02</pdfrwt>
<totfact> 0.87945673E+04</totfact>
</mgrwt>
</event>
<event>
 4      1 +1.6944000e+03 5.81649000e+01 7.81860800e-03 1.40569800e-01
       -2 -1    0    0    0  501 -0.0000000000e+00 +0.0000000000e+00 +1.4382073913e+01 1.4382073913e+01 0.0000000000e+00 0.0000e+00 1.0000e+00
        2 -1    0    0  501    0 +0.0000000000e+00 -0.0000000000e+00 -5.8808553686e+01 5.8808553686e+01 0.0000000000e+00 0.0000e+00 -1.0000e+00
      -11  1    1    2    0    0 +2.5263553385e+01 +6.7461978316e+00 -3.8230678067e+01 4.6317848182e+01 0.0000000000e+00 0.0000e+00 -1.0000e+00
       11  1    1    2    0    0 -2.5263553385e+01 -6.7461978316e+00 -6.1958017064e+00 2.6872779417e+01 0.0000000000e+00 0.0000e+00 1.0000e+00
<mgrwt>
<rscale>  0 0.58164902E+02</rscale>
<asrwt>0</asrwt>
<pdfrwt beam="2">  1        2 0.90474697E-02 0.58164902E+02</pdfrwt>
<pdfrwt beam="1">  1       -2 0.22126268E-02 0.58164902E+02</pdfrwt>
<totfact> 0.35786997E+05</totfact>
</mgrwt>
</event>
<event>
 4      1 +1.6944000e+03 4.65252400e+01 7.81860800e-03 1.46503800e-01
        1 -1    0    0  501    0 +0.0000000000e+00 +0.0000000000e+00 +3.4970716864e+01 3.4970716864e+01 0.0000000000e+00 0.0000e+00 1.0000e+00
       -1 -1    0    0    0  501 -0.0000000000e+00 -0.0000000000e+00 -1.5474358152e+01 1.5474358152e+01 0.0000000000e+00 0.0000e+00 -1.0000e+00
      -11  1    1    2    0    0 +1.4207961843e+01 +7.8146362793e+00 -8.3368911387e+00 1.8232895376e+01 0.0000000000e+00 0.0000e+00 -1.0000e+00
       11  1    1    2    0    0 -1.4207961843e+01 -7.8146362793e+00 +2.7833249851e+01 3.2212179641e+01 0.0000000000e+00 0.0000e+00 1.0000e+00
<mgrwt>
<rscale>  0 0.46525236E+02</rscale>
<asrwt>0</asrwt>
<pdfrwt beam="1">  1        1 0.53801102E-02 0.46525236E+02</pdfrwt>
<pdfrwt beam="2">  1       -1 0.23806705E-02 0.46525236E+02</pdfrwt>
<totfact> 0.54209092E+05</totfact>
</mgrwt>
</event>
<event>
 5      1 +1.6944000e+03 9.18464800e+01 7.81860800e-03 1.29844100e-01
       -2 -1    0    0    0  501 -0.0000000000e+00 +0.0000000000e+00 +7.8983314567e+01 7.8983314567e+01 0.0000000000e+00 0.0000e+00 1.0000e+00
        2 -1    0    0  501    0 +0.0000000000e+00 -0.0000000000e+00 -2.6701133002e+01 2.6701133002e+01 0.0000000000e+00 0.0000e+00 -1.0000e+00
       23  2    1    2    0    0 +0.0000000000e+00 +0.0000000000e+00 +5.2282181565e+01 1.0568444757e+02 9.1846480328e+01 0.0000e+00 0.0000e+00
      -13  1    3    3    0    0 -3.5052899740e+01 +1.5207432804e+01 -3.1719996745e+00 3.8341014262e+01 0.0000000000e+00 0.0000e+00 1.0000e+00
       13  1    3    3    0    0 +3.5052899740e+01 -1.5207432804e+01 +5.5454181239e+01 6.7343433307e+01 0.0000000000e+00 0.0000e+00 -1.0000e+00
<mgrwt>
<rscale>  0 0.91846480E+02</rscale>
<asrwt>0</asrwt>
<pdfrwt beam="2">  1        2 0.41078666E-02 0.91846480E+02</pdfrwt>
<pdfrwt beam="1">  1       -2 0.12151279E-01 0.91846480E+02</pdfrwt>
<totfact> 0.83857804E+04</totfact>
</mgrwt>
</event>
<event>
 5      1 +1.6944000e+03 9.42824700e+01 7.81860800e-03 1.29280000e-01
        1 -1    0    0  501    0 +0.0000000000e+00 +0.0000000000e+00 +4.7465768601e+00 4.7465768601e+00 0.0000000000e+00 0.0000e+00 1.0000e+00
       -1 -1    0    0    0  501 -0.0000000000e+00 -0.0000000000e+00 -4.6818916664e+02 4.6818916664e+02 0.0000000000e+00 0.0000e+00 -1.0000e+00
       23  2    1    2    0    0 +0.0000000000e+00 +0.0000000000e+00 -4.6344258978e+02 4.7293574350e+02 9.4282466335e+01 0.0000e+00 0.0000e+00
      -11  1    3    3    0    0 -2.0925066713e+01 +4.2132333386e+01 -2.4702175339e+02 2.5146120691e+02 0.0000000000e+00 0.0000e+00 1.0000e+00
       11  1    3    3    0    0 +2.0925066713e+01 -4.2132333386e+01 -2.1642083639e+02 2.2147453659e+02 0.0000000000e+00 0.0000e+00 -1.0000e+00
<mgrwt>
<rscale>  0 0.94282466E+02</rscale>
<asrwt>0</asrwt>
<pdfrwt beam="1">  1        1 0.73024233E-03 0.94282466E+02</pdfrwt>
<pdfrwt beam="2">  1       -1 0.72029128E-01 0.94282466E+02</pdfrwt>
<totfact> 0.44810246E+04</totfact>
</mgrwt>
</event>
<event>
 4      1 +1.6944000e+03 6.54599900e+01 7.81860800e-03 1.37624900e-01
        2 -1    0    0  501    0 +0.0000000000e+00 +0.0000000000e+00 +2.1678967366e+01 2.1678967366e+01 0.0000000000e+00 0.0000e+00 1.0000e+00
       -2 -1    0    0    0  501 -0.0000000000e+00 -0.0000000000e+00 -4.9414377997e+01 4.9414377997e+01 0.0000000000e+00 0.0000e+00 -1.0000e+00
      -11  1    1    2    0    0 +1.2966693503e+01 -1.7095410383e+01 +1.2974947446e+01 2.5074637740e+01 0.0000000000e+00 0.0000e+00 1.0000e+00
       11  1    1    2    0    0 -1.2966693503e+01 +1.7095410383e+01 -4.0710358077e+01 4.6018707624e+01 0.0000000000e+00 0.0000e+00 -1.0000e+00
<mgrwt>
<rscale>  0 0.65459994E+02</rscale>
<asrwt>0</asrwt>
<pdfrwt beam="1">  1        2 0.33352257E-02 0.65459994E+02</pdfrwt>
<pdfrwt beam="2">  1       -2 0.76022120E-02 0.65459994E+02</pdfrwt>
<totfact> 0.21361442E+05</totfact>
</mgrwt>
</event>
<event>
 4      1 +1.6944000e+03 2.52173600e+01 7.81860800e-03 1.65789900e-01
       -2 -1    0    0    0  501 -0.0000000000e+00 +0.0000000000e+00 +2.5103393596e+00 2.5103393596e+00 0.0000000000e+00 0.0000e+00 1.0000e+00
        2 -1    0    0  501    0 +0.0000000000e+00 -0.0000000000e+00 -6.3329600440e+01 6.3329600440e+01 0.0000000000e+00 0.0000e+00 -1.0000e+00
      -13  1    1    2    0    0 -1.0594283014e+01 -6.2811750529e+00 -3.7457504735e+01 3.9430402656e+01 0.0000000000e+00 0.0000e+00 -1.0000e+00
       13  1    1    2    0    0 +1.0594283014e+01 +6.2811750529e+00 -2.3361756345e+01 2.6409537144e+01 0.0000000000e+00 0.0000e+00 1.0000e+00
<mgrwt>
<rscale>  0 0.25217358E+02</rscale>
<asrwt>0</asrwt>
<pdfrwt beam="2">  1        2 0.97430157E-02 0.25217358E+02</pdfrwt>
<pdfrwt beam="1">  1       -2 0.38620605E-03 0.25217358E+02</pdfrwt>
<totfact> 0.28467878E+06</totfact>
</mgrwt>
</event>
<event>
 4      1 +1.6944000e+03 2.45004000e+01 7.81860800e-03 1.66828300e-01
        3 -1    0    0  501    0 +0.0000000000e+00 +0.0000000000e+00 +4.3329078586e+00 4.3329078586e+00 0.0000000000e+00 0.0000e+00 -1.0000e+00
       -3 -1    0    0    0  501 -0.0000000000e+00 -0.0000000000e+00 -3.4634331026e+01 3.4634331026e+01 0.0000000000e+00 0.0000e+00 1.0000e+00
      -11  1    1    2    0    0 -1.4739992925e+00 +1.0523552986e+01 -2.4844714248e+01 2.7021799855e+01 0.0000000000e+00 0.0000e+00 -1.0000e+00
       11  1    1    2    0    0 +1.4739992925e+00 -1.0523552986e+01 -5.4567089198e+00 1.1945439029e+01 0.0000000000e+00 0.0000e+00 1.0000e+00
<mgrwt>
<rscale>  0 0.24500397E+02</rscale>
<asrwt>0</asrwt>
<pdfrwt beam="1">  1        3 0.66660123E-03 0.24500397E+02</pdfrwt>
<pdfrwt beam="2">  1       -3 0.53283584E-02 0.24500397E+02</pdfrwt>
<totfact> 0.10732411E+06</totfact>
</mgrwt>
</event>
<event>
 5      1 +1.6944000e+03 8.98446600e+01 7.81860800e-03 1.30322800e-01
        3 -1    0    0  501    0 +0.0000000000e+00 +0.0000000000e+00 +2.2303688381e+01 2.2303688381e+01 0.0000000000e+00 0.0000e+00 -1.0000e+00
       -3 -1    0    0    0  501 -0.0000000000e+00 -0.0000000000e+00 -9.0479018837e+01 9.0479018837e+01 0.0000000000e+00 0.0000e+00 1.0000e+00
       23  2    1    2    0    0 +0.0000000000e+00 +0.0000000000e+00 -6.8175330455e+01 1.1278270722e+02 8.9844662416e+01 0.0000e+00 0.0000e+00
      -13  1    3    3    0    0 +1.4560262531e+01 +1.3860285775e+01 +1.6342396130e+01 2.5907193557e+01 0.0000000000e+00 0.0000e+00 -1.0000e+00
       13  1    3    3    0    0 -1.4560262531e+01 -1.3860285775e+01 -8.4517726585e+01 8.6875513661e+01 0.0000000000e+00 0.0000e+00 1.0000e+00
<mgrwt>
<rscale>  0 0.89844662E+02</rscale>
<asrwt>0</asrwt>
<pdfrwt beam="1">  1        3 0.34313367E-02 0.89844662E+02</pdfrwt>
<pdfrwt beam="2">  1       -3 0.13919849E-01 0.89844662E+02</pdfrwt>
<totfact> 0.35123335E+04</totfact>
</mgrwt>
</event>
<event>
 4      1 +1.6944000e+03 2.09751900e+01 7.81860800e-03 1.72660300e-01
       -2 -1    0    0    0  501 -0.0000000000e+00 +0.0000000000e+00 +9.8673447960e-01 9.8673447960e-01 0.0000000000e+00 0.0000e+00 1.0000e+00
        2 -1    0    0  501    0 +0.0000000000e+00 -0.0000000000e+00 -1.1146838384e+02 1.1146838384e+02 0.0000000000e+00 0.0000e+00 -1.0000e+00
      -13  1    1    2    0    0 -6.2330861762e+00 +8.4324624931e+00 -5.6198551540e+01 5.7168478921e+01 0.0000000000e+00 0.0000e+00 1.0000e+00
       13  1    1    2    0    0 +6.2330861762e+00 -8.4324624931e+00 -5.4283097818e+01 5.5286639396e+01 0.0000000000e+00 0.0000e+00 -1.0000e+00
<mgrwt>
<rscale>  0 0.20975195E+02</rscale>
<asrwt>0</asrwt>
<pdfrwt beam="2">  1        2 0.17148976E-01 0.20975195E+02</pdfrwt>
<pdfrwt beam="1">  1       -2 0.15180536E-03 0.20975195E+02</pdfrwt>
<totfact> 0.48701473E+06</totfact>
</mgrwt>
</event>
<event>
 5      1 +1.6944000e+03 9.08826100e+01 7.81860800e-03 1.30072800e-01
       -2 -1    0    0    0  501 -0.0000000000e+00 +0.0000000000e+00 +1.6544571602e+01 1.6544571602e+01 0.0000000000e+00 0.0000e+00 1.0000e+00
        2 -1    0    0  501    0 +0.0000000000e+00 -0.0000000000e+00 -1.2480904074e+02 1.2480904074e+02 0.0000000000e+00 0.0000e+00 -1.0000e+00
       23  2    1    2    0    0 +0.0000000000e+00 +0.0000000000e+00 -1.0826446914e+02 1.4135361235e+02 9.0882608043e+01 0.0000e+00 0.0000e+00
      -13  1    3    3    0    0 +3.3622659727e+01 +2.0741890340e+00 -6.6974247919e+00 3.4345902319e+01 0.0000000000e+00 0.0000e+00 1.0000e+00
       13  1    3    3    0    0 -3.3622659727e+01 -2.0741890340e+00 -1.0156704435e+02 1.0700771003e+02 0.0000000000e+00 0.0000e+00 -1.0000e+00
<mgrwt>
<rscale>  0 0.90882608E+02</rscale>
<asrwt>0</asrwt>
<pdfrwt beam="2">  1        2 0.19201391E-01 0.90882608E+02</pdfrwt>
<pdfrwt beam="1">  1       -2 0.25453186E-02 0.90882608E+02</pdfrwt>
<totfact> 0.13268560E+05</totfact>
</mgrwt>
</event>
<event>
 4      1 +1.6944000e+03 2.98092400e+01 7.81860800e-03 1.60020700e-01
        2 -1    0    0  501    0 +0.0000000000e+00 +0.0000000000e+00 +4.8669490780e+01 4.8669490780e+01 0.0000000000e+00 0.0000e+00 -1.0000e+00
       -2 -1    0    0    0  501 -0.0000000000e+00 -0.0000000000e+00 -4.5644131790e+00 4.5644131790e+00 0.0000000000e+00 0.0000e+00 1.0000e+00
      -13  1    1    2    0    0 -1.1613822814e+01 -8.3734261285e+00 +2.9448615517e+01 3.2744711044e+01 0.0000000000e+00 0.0000e+00 -1.0000e+00
       13  1    1    2    0    0 +1.1613822814e+01 +8.3734261285e+00 +1.4656462084e+01 2.0489192915e+01 0.0000000000e+00 0.0000e+00 1.0000e+00
<mgrwt>
<rscale>  0 0.29809238E+02</rscale>
<asrwt>0</asrwt>
<pdfrwt beam="1">  1        2 0.74876136E-02 0.29809238E+02</pdfrwt>
<pdfrwt beam="2">  1       -2 0.70221745E-03 0.29809238E+02</pdfrwt>
<totfact> 0.18380772E+06</totfact>
</mgrwt>
</event>
<event>
 5      1 +1.6944000e+03 8.82075400e+01 7.81860800e-03 1.30725100e-01
       -3 -1    0    0    0  501 -0.0000000000e+00 +0.0000000000e+00 +1.4027315516e+02 1.4027315516e+02 0.0000000000e+00 0.0000e+00 1.0000e+00
        3 -1    0    0  501    0 +0.0000000000e+00 -0.0000000000e+00 -1.3866818151e+01 1.3866818151e+01 0.0000000000e+00 0.0000e+00 -1.0000e+00
       23  2    1    2    0    0 +0.0000000000e+00 +0.0000000000e+00 +1.2640633701e+02 1.5413997331e+02 8.8207535600e+01 0.0000e+00 0.0000e+00
      -13  1    3    3    0    0 +3.7743452170e+01 +2.0857206241e+01 +7.9366184042e+01 9.0324871455e+01 0.0000000000e+00 0.0000e+00 1.0000e+00
       13  1    3    3    0    0 -3.7743452170e+01 -2.0857206241e+01 +4.7040152970e+01 6.3815101860e+01 0.0000000000e+00 0.0000e+00 -1.0000e+00
<mgrwt>
<rscale>  0 0.88207536E+02</rscale>
<asrwt>0</asrwt>
<pdfrwt beam="2">  1        3 0.21333567E-02 0.88207536E+02</pdfrwt>
<pdfrwt beam="1">  1       -3 0.21580484E-01 0.88207536E+02</pdfrwt>
<totfact> 0.33958634E+04</totfact>
</mgrwt>
</event>
<event>
 5      1 +1.6944000e+03 8.80468500e+01 7.81860800e-03 1.30765200e-01
        1 -1    0    0  501    0 +0.0000000000e+00 +0.0000000000e+00 +8.5165189372e+00 8.5165189372e+00 0.0000000000e+00 0.0000e+00 -1.0000e+00
       -1 -1    0    0    0  501 -0.0000000000e+00 -0.0000000000e+00 -2.2756506252e+02 2.2756506252e+02 0.0000000000e+00 0.0000e+00 1.0000e+00
       23  2    1    2    0    0 +0.0000000000e+00 +0.0000000000e+00 -2.1904854358e+02 2.3608158146e+02 8.8046854899e+01 0.0000e+00 0.0000e+00
      -11  1    3    3    0    0 +4.1593311329e+01 -6.5226993826e+00 -1.4401992131e+02 1.5004761540e+02 0.0000000000e+00 0.0000e+00 1.0000e+00
       11  1    3    3    0    0 -4.1593311329e+01 +6.5226993826e+00 -7.5028622274e+01 8.6033966053e+01 0.0000000000e+00 0.0000e+00 -1.0000e+00
<mgrwt>
<rscale>  0 0.88046855E+02</rscale>
<asrwt>0</asrwt>
<pdfrwt beam="1">  1        1 0.13102339E-02 0.88046855E+02</pdfrwt>
<pdfrwt beam="2">  1       -1 0.35010003E-01 0.88046855E+02</pdfrwt>
<totfact> 0.73146057E+04</totfact>
</mgrwt>
</event>
<event>
 5      1 +1.6944000e+03 8.95670100e+01 7.81860800e-03 1.30390400e-01
       -1 -1    0    0    0  501 -0.0000000000e+00 +0.0000000000e+00 +5.0047688748e+01 5.0047688748e+01 0.0000000000e+00 0.0000e+00 1.0000e+00
        1 -1    0    0  501    0 +0.0000000000e+00 -0.0000000000e+00 -4.0073024520e+01 4.0073024520e+01 0.0000000000e+00 0.0000e+00 -1.0000e+00
       23  2    1    2    0    0 +0.0000000000e+00 +0.0000000000e+00 +9.9746642279e+00 9.0120713268e+01 8.9567008622e+01 0.0000e+00 0.0000e+00
      -11  1    3    3    0    0 -3.7921873573e+01 -4.3822851663e+00 -1.8573002358e+01 4.2452671708e+01 0.0000000000e+00 0.0000e+00 -1.0000e+00
       11  1    3    3    0    0 +3.7921873573e+01 +4.3822851663e+00 +2.8547666586e+01 4.7668041559e+01 0.0000000000e+00 0.0000e+00 1.0000e+00
<mgrwt>
<rscale>  0 0.89567009E+02</rscale>
<asrwt>0</asrwt>
<pdfrwt beam="2">  1        1 0.61650807E-02 0.89567009E+02</pdfrwt>
<pdfrwt beam="1">  1       -1 0.76996444E-02 0.89567009E+02</pdfrwt>
<totfact> 0.95357420E+04</totfact>
</mgrwt>
</event>
<event>
 5      1 +1.6944000e+03 9.19489300e+01 7.81860800e-03 1.29820000e-01
       -1 -1    0    0    0  501 -0.0000000000e+00 +0.0000000000e+00 +2.6174918607e+02 2.6174918607e+02 0.0000000000e+00 0.0000e+00 1.0000e+00
        1 -1    0    0  501    0 +0.0000000000e+00 -0.0000000000e+00 -8.0751013955e+00 8.0751013955e+00 0.0000000000e+00 0.0000e+00 -1.0000e+00
       23  2    1    2    0    0 +0.0000000000e+00 +0.0000000000e+00 +2.5367408468e+02 2.6982428747e+02 9.1948925338e+01 0.0000e+00 0.0000e+00
      -11  1    3    3    0    0 -2.6910181459e+00 -4.3027097287e+01 +7.9969590601e+01 9.0849920751e+01 0.0000000000e+00 0.0000e+00 -1.0000e+00
       11  1    3    3    0    0 +2.6910181459e+00 +4.3027097287e+01 +1.7370449407e+02 1.7897436672e+02 0.0000000000e+00 0.0000e+00 1.0000e+00
<mgrwt>
<rscale>  0 0.91948925E+02</rscale>
<asrwt>0</asrwt>
<pdfrwt beam="2">  1        1 0.12423235E-02 0.91948925E+02</pdfrwt>
<pdfrwt beam="1">  1       -1 0.40269099E-01 0.91948925E+02</pdfrwt>
<totfact> 0.62355059E+04</totfact>
</mgrwt>
</event>
<event>
 4      1 +1.6944000e+03 3.61037400e+01 7.81860800e-03 1.53901200e-01
        2 -1    0    0  501    0 +0.0000000000e+00 +0.0000000000e+00 +4.8053777825e+00 4.8053777825e+00 0.0000000000e+00 0.0000e+00 1.0000e+00
       -2 -1    0    0    0  501 -0.0000000000e+00 -0.0000000000e+00 -6.7813615387e+01 6.7813615387e+01 0.0000000000e+00 0.0000e+00 -1.0000e+00
      -11  1    1    2    0    0 +8.7781701649e+00 +1.2181846705e+01 -5.1659930438e+01 5.3797788742e+01 0.0000000000e+00 0.0000e+00 -1.0000e+00
       11  1    1    2    0    0 -8.7781701649e+00 -1.2181846705e+01 -1.1348307167e+01 1.8821204428e+01 0.0000000000e+00 0.0000e+00 1.0000e+00
<mgrwt>
<rscale>  0 0.36103742E+02</rscale>
<asrwt>0</asrwt>
<pdfrwt beam="1">  1        2 0.73928891E-03 0.36103742E+02</pdfrwt>
<pdfrwt beam="2">  1       -2 0.10432864E-01 0.36103742E+02</pdfrwt>
<totfact> 0.83960086E+05</totfact>
</mgrwt>
</event>
<event>
 5      1 +1.6944000e+03 8.95445700e+01 7.81860800e-03 1.30395800e-01
        1 -1    0    0  501    0 +0.0000000000e+00 +0.0000000000e+00 +2.2956265110e+01 2.2956265110e+01 0.0000000000e+00 0.0000e+00 -1.0000e+00
       -1 -1    0    0    0  501 -0.0000000000e+00 -0.0000000000e+00 -8.7320718473e+01 8.7320718473e+01 0.0000000000e+00 0.0000e+00 1.0000e+00
       23  2    1    2    0    0 +0.0000000000e+00 +0.0000000000e+00 -6.4364453363e+01 1.1027698358e+02 8.9544571312e+01 0.0000e+00 0.0000e+00
      -11  1    3    3    0    0 -2.1860719470e+01 -2.1990438260e+01 +7.5923815438e+00 3.1923575742e+01 0.0000000000e+00 0.0000e+00 -1.0000e+00
       11  1    3    3    0    0 +2.1860719470e+01 +2.1990438260e+01 -7.1956834907e+01 7.8353407842e+01 0.0000000000e+00 0.0000e+00 1.0000e+00
<mgrwt>
<rscale>  0 0.89544571E+02</rscale>
<asrwt>0</asrwt>
<pdfrwt beam="1">  1        1 0.35317332E-02 0.89544571E+02</pdfrwt>
<pdfrwt beam="2">  1       -1 0.13433956E-01 0.89544571E+02</pdfrwt>
<totfact> 0.87337118E+04</totfact>
</mgrwt>
</event>
<event>
 4      1 +1.6944000e+03 4.55486700e+01 7.81860800e-03 1.47094500e-01
        2 -1    0    0  501    0 +0.0000000000e+00 +0.0000000000e+00 +3.7166287493e+01 3.7166287493e+01 0.0000000000e+00 0.0000e+00 -1.0000e+00
       -2 -1    0    0    0  501 -0.0000000000e+00 -0.0000000000e+00 -1.3955400112e+01 1.3955400112e+01 0.0000000000e+00 0.0000e+00 1.0000e+00
      -11  1    1    2    0    0 -8.6260681740e+00 -8.8996019427e+00 -9.8387958298e+00 1.5824470615e+01 0.0000000000e+00 0.0000e+00 1.0000e+00
       11  1    1    2    0    0 +8.6260681740e+00 +8.8996019427e+00 +3.3049683210e+01 3.5297216989e+01 0.0000000000e+00 0.0000e+00 -1.0000e+00
<mgrwt>
<rscale>  0 0.45548673E+02</rscale>
<asrwt>0</asrwt>
<pdfrwt beam="1">  1        2 0.57178903E-02 0.45548673E+02</pdfrwt>
<pdfrwt beam="2">  1       -2 0.21469846E-02 0.45548673E+02</pdfrwt>
<totfact> 0.61849583E+05</totfact>
</mgrwt>
</event>
<event>
 5      1 +1.6944000e+03 1.01528400e+02 7.81860800e-03 1.27711400e-01
        2 -1    0    0  501    0 +0.0000000000e+00 +0.0000000000e+00 +7.3382760208e+01 7.3382760208e+01 0.0000000000e+00 0.0000e+00 -1.0000e+00
       -2 -1    0    0    0  501 -0.0000000000e+00 -0.0000000000e+00 -3.5117314830e+01 3.5117314830e+01 0.0000000000e+00 0.0000e+00 1.0000e+00
       23  2    1    2    0    0 +0.0000000000e+00 +0.0000000000e+00 +3.8265445378e+01 1.0850007504e+02 1.0152842938e+02 0.0000e+00 0.0000e+00
      -13  1    3    3    0    0 -3.4293316119e+01 -3.7340220519e+01 +1.6370286996e+01 5.3275790892e+01 0.0000000000e+00 0.0000e+00 1.0000e+00
       13  1    3    3    0    0 +3.4293316119e+01 +3.7340220519e+01 +2.1895158382e+01 5.5224284146e+01 0.0000000000e+00 0.0000e+00 -1.0000e+00
<mgrwt>
<rscale>  0 0.10152843E+03</rscale>
<asrwt>0</asrwt>
<pdfrwt beam="1">  1        2 0.11289655E-01 0.10152843E+03</pdfrwt>
<pdfrwt beam="2">  1       -2 0.54026638E-02 0.10152843E+03</pdfrwt>
<totfact> 0.82776874E+04</totfact>
</mgrwt>
</event>
<event>
 5      1 +1.6944000e+03 9.16754000e+01 7.81860800e-03 1.29884400e-01
       -2 -1    0    0    0  501 -0.0000000000e+00 +0.0000000000e+00 +1.2526188484e+01 1.2526188484e+01 0.0000000000e+00 0.0000e+00 1.0000e+00
        2 -1    0    0  501    0 +0.0000000000e+00 -0.0000000000e+00 -1.6773614864e+02 1.6773614864e+02 0.0000000000e+00 0.0000e+00 -1.0000e+00
       23  2    1    2    0    0 +0.0000000000e+00 +0.0000000000e+00 -1.5520996015e+02 1.8026233712e+02 9.1675397212e+01 0.0000e+00 0.0000e+00
      -11  1    3    3    0    0 +4.1379077026e+01 -1.9667755271e+01 -8.0417561287e+01 9.2552864765e+01 0.0000000000e+00 0.0000e+00 -1.0000e+00
       11  1    3    3    0    0 -4.1379077026e+01 +1.9667755271e+01 -7.4792398866e+01 8.7709472357e+01 0.0000000000e+00 0.0000e+00 1.0000e+00
<mgrwt>
<rscale>  0 0.91675397E+02</rscale>
<asrwt>0</asrwt>
<pdfrwt beam="2">  1        2 0.25805559E-01 0.91675397E+02</pdfrwt>
<pdfrwt beam="1">  1       -2 0.19271061E-02 0.91675397E+02</pdfrwt>
<totfact> 0.14316682E+05</totfact>
</mgrwt>
</event>
<event>
 5      1 +1.6944000e+03 9.09386300e+01 7.81860800e-03 1.30059400e-01
        1 -1    0    0  501    0 +0.0000000000e+00 +0.0000000000e+00 +2.3948593573e+01 2.3948593573e+01 0.0000000000e+00 0.0000e+00 -1.0000e+00
       -1 -1    0    0    0  501 -0.0000000000e+00 -0.0000000000e+00 -8.6329022509e+01 8.6329022509e+01 0.0000000000e+00 0.0000e+00 1.0000e+00
       23  2    1    2    0    0 +0.0000000000e+00 +0.0000000000e+00 -6.2380428935e+01 1.1027761608e+02 9.0938631475e+01 0.0000e+00 0.0000e+00
      -11  1    3    3    0    0 +3.9985963019e+01 +1.0720020339e+01 -8.3850335441e+00 4.2238665487e+01 0.0000000000e+00 0.0000e+00 -1.0000e+00
       11  1    3    3    0    0 -3.9985963019e+01 -1.0720020339e+01 -5.3995395391e+01 6.8038950595e+01 0.0000000000e+00 0.0000e+00 1.0000e+00
<mgrwt>
<rscale>  0 0.90938631E+02</rscale>
<asrwt>0</asrwt>
<pdfrwt beam="1">  1        1 0.36843991E-02 0.90938631E+02</pdfrwt>
<pdfrwt beam="2">  1       -1 0.13281388E-01 0.90938631E+02</pdfrwt>
<totfact> 0.84114403E+04</totfact>
</mgrwt>
</event>
<event>
 5      1 +1.6944000e+03 9.03073600e+01 7.81860800e-03 1.30210900e-01
       -2 -1    0    0    0  501 -0.0000000000e+00 +0.0000000000e+00 +2.4498931594e+02 2.4498931594e+02 0.0000000000e+00 0.0000e+00 1.0000e+00
        2 -1    0    0  501    0 +0.0000000000e+00 -0.0000000000e+00 -8.3222184850e+00 8.3222184850e+00 0.0000000000e+00 0.0000e+00 -1.0000e+00
       23  2    1    2    0    0 +0.0000000000e+00 +0.0000000000e+00 +2.3666709745e+02 2.5331153442e+02 9.0307355486e+01 0.0000e+00 0.0000e+00
      -11  1    3    3    0    0 -2.9702488655e+01 -3.2712573873e+01 +1.4442214240e+02 1.5103014778e+02 0.0000000000e+00 0.0000e+00 1.0000e+00
       11  1    3    3    0    0 +2.9702488655e+01 +3.2712573873e+01 +9.2244955050e+01 1.0228138664e+02 0.0000000000e+00 0.0000e+00 -1.0000e+00
<mgrwt>
<rscale>  0 0.90307355E+02</rscale>
<asrwt>0</asrwt>
<pdfrwt beam="2">  1        2 0.12803415E-02 0.90307355E+02</pdfrwt>
<pdfrwt beam="1">  1       -2 0.37690658E-01 0.90307355E+02</pdfrwt>
<totfact> 0.58154873E+04</totfact>
</mgrwt>
</event>
<event>
 5      1 +1.6944000e+03 9.22282200e+01 7.81860800e-03 1.29754400e-01
        2 -1    0    0  501    0 +0.0000000000e+00 +0.0000000000e+00 +1.8991546814e+02 1.8991546814e+02 0.0000000000e+00 0.0000e+00 -1.0000e+00
       -2 -1    0    0    0  501 -0.0000000000e+00 -0.0000000000e+00 -1.1197144842e+01 1.1197144842e+01 0.0000000000e+00 0.0000e+00 1.0000e+00
       23  2    1    2    0    0 +0.0000000000e+00 +0.0000000000e+00 +1.7871832330e+02 2.0111261298e+02 9.2228217038e+01 0.0000e+00 0.0000e+00
      -13  1    3    3    0    0 -3.8782532667e+01 +2.9987781856e+00 +3.5351019473e+01 5.2562078426e+01 0.0000000000e+00 0.0000e+00 1.0000e+00
       13  1    3    3    0    0 +3.8782532667e+01 -2.9987781856e+00 +1.4336730383e+02 1.4855053456e+02 0.0000000000e+00 0.0000e+00 -1.0000e+00
<mgrwt>
<rscale>  0 0.92228217E+02</rscale>
<asrwt>0</asrwt>
<pdfrwt beam="1">  1        2 0.29217762E-01 0.92228217E+02</pdfrwt>
<pdfrwt beam="2">  1       -2 0.17226378E-02 0.92228217E+02</pdfrwt>
<totfact> 0.14719649E+05</totfact>
</mgrwt>
</event>
<event>
 4      1 +1.6944000e+03 2.35962900e+01 7.81860800e-03 1.68202300e-01
        4 -1    0    0  501    0 +0.0000000000e+00 +0.0000000000e+00 +4.5071819716e+01 4.5071819716e+01 0.0000000000e+00 0.0000e+00 1.0000e+00
       -4 -1    0    0    0  501 -0.0000000000e+00 -0.0000000000e+00 -3.0883217456e+00 3.0883217456e+00 0.0000000000e+00 0.0000e+00 -1.0000e+00
      -11  1    1    2    0    0 -4.5093066127e+00 +1.0890347905e+01 +2.2037965000e+01 2.4992107253e+01 0.0000000000e+00 0.0000e+00 1.0000e+00
       11  1    1    2    0    0 +4.5093066127e+00 -1.0890347905e+01 +1.9945532971e+01 2.3168034209e+01 0.0000000000e+00 0.0000e+00 -1.0000e+00
<mgrwt>
<rscale>  0 0.23596295E+02</rscale>
<asrwt>0</asrwt>
<pdfrwt beam="1">  1        4 0.69341256E-02 0.23596295E+02</pdfrwt>
<pdfrwt beam="2">  1       -4 0.47512646E-03 0.23596295E+02</pdfrwt>
<totfact> 0.82324045E+05</totfact>
</mgrwt>
</event>
<event>
 4      1 +1.6944000e+03 2.47981400e+01 7.81860800e-03 1.66391800e-01
       -4 -1    0    0    0  501 -0.0000000000e+00 +0.0000000000e+00 +2.0500489911e+00 2.0500489911e+00 0.0000000000e+00 0.0000e+00 1.0000e+00
        4 -1    0    0  501    0 +0.0000000000e+00 -0.0000000000e+00 -7.4991849331e+01 7.4991849331e+01 0.0000000000e+00 0.0000e+00 -1.0000e+00
      -13  1    1    2    0    0 -1.1520793371e+01 -4.1526360285e+00 -3.0443544509e+01 3.2814363747e+01 0.0000000000e+00 0.0000e+00 1.0000e+00
       13  1    1    2    0    0 +1.1520793371e+01 +4.1526360285e+00 -4.2498255832e+01 4.4227534575e+01 0.0000000000e+00 0.0000e+00 -1.0000e+00
<mgrwt>
<rscale>  0 0.24798142E+02</rscale>
<asrwt>0</asrwt>
<pdfrwt beam="2">  1        4 0.11537208E-01 0.24798142E+02</pdfrwt>
<pdfrwt beam="1">  1       -4 0.31539213E-03 0.24798142E+02</pdfrwt>
<totfact> 0.67309879E+05</totfact>
</mgrwt>
</event>
<event>
 5      1 +1.6944000e+03 8.94768300e+01 7.81860800e-03 1.30412400e-01
        2 -1    0    0  501    0 +0.0000000000e+00 +0.0000000000e+00 +4.4292508789e+01 4.4292508789e+01 0.0000000000e+00 0.0000e+00 1.0000e+00
       -2 -1    0    0    0  501 -0.0000000000e+00 -0.0000000000e+00 -4.5188814012e+01 4.5188814012e+01 0.0000000000e+00 0.0000e+00 -1.0000e+00
       23  2    1    2    0    0 +0.0000000000e+00 +0.0000000000e+00 -8.9630522254e-01 8.9481322801e+01 8.9476833690e+01 0.0000e+00 0.0000e+00
      -11  1    3    3    0    0 -8.9382648588e-01 +2.6861893822e+01 +3.5319067475e+01 4.4382392824e+01 0.0000000000e+00 0.0000e+00 1.0000e+00
       11  1    3    3    0    0 +8.9382648588e-01 -2.6861893822e+01 -3.6215372697e+01 4.5098929977e+01 0.0000000000e+00 0.0000e+00 -1.0000e+00
<mgrwt>
<rscale>  0 0.89476834E+02</rscale>
<asrwt>0</asrwt>
<pdfrwt beam="1">  1        2 0.68142321E-02 0.89476834E+02</pdfrwt>
<pdfrwt beam="2">  1       -2 0.69521253E-02 0.89476834E+02</pdfrwt>
<totfact> 0.10337047E+05</totfact>
</mgrwt>
</event>
<event>
 5      1 +1.6944000e+03 9.13532100e+01 7.81860800e-03 1.29960700e-01
       -1 -1    0    0    0  501 -0.0000000000e+00 +0.0000000000e+00 +7.1944546875e+00 7.1944546875e+00 0.0000000000e+00 0.0000e+00 1.0000e+00
        1 -1    0    0  501    0 +0.0000000000e+00 -0.0000000000e+00 -2.8999447535e+02 2.8999447535e+02 0.0000000000e+00 0.0000e+00 -1.0000e+00
       23  2    1    2    0    0 +0.0000000000e+00 +0.0000000000e+00 -2.8280002066e+02 2.9718893004e+02 9.1353207114e+01 0.0000e+00 0.0000e+00
      -13  1    3    3    0    0 +2.8830899371e+01 -3.5044139323e+01 -1.5831646648e+02 1.6469188207e+02 0.0000000000e+00 0.0000e+00 -1.0000e+00
       13  1    3    3    0    0 -2.8830899371e+01 +3.5044139323e+01 -1.2448355418e+02 1.3249704797e+02 0.0000000000e+00 0.0000e+00 1.0000e+00
<mgrwt>
<rscale>  0 0.91353207E+02</rscale>
<asrwt>0</asrwt>
<pdfrwt beam="2">  1        1 0.44614537E-01 0.91353207E+02</pdfrwt>
<pdfrwt beam="1">  1       -1 0.11068391E-02 0.91353207E+02</pdfrwt>
<totfact> 0.12663772E+05</totfact>
</mgrwt>
</event>
<event>
 5      1 +1.6944000e+03 9.87806600e+01 7.81860800e-03 1.28288100e-01
       -4 -1    0    0    0  501 -0.0000000000e+00 +0.0000000000e+00 +2.3850956666e+01 2.3850956666e+01 0.0000000000e+00 0.0000e+00 1.0000e+00
        4 -1    0    0  501    0 +0.0000000000e+00 -0.0000000000e+00 -1.0227702164e+02 1.0227702164e+02 0.0000000000e+00 0.0000e+00 -1.0000e+00
       23  2    1    2    0    0 +0.0000000000e+00 +0.0000000000e+00 -7.8426064969e+01 1.2612797830e+02 9.8780662297e+01 0.0000e+00 0.0000e+00
      -13  1    3    3    0    0 -3.3215055446e+01 -6.5629355582e-01 -8.5878919015e+01 9.2080721981e+01 0.0000000000e+00 0.0000e+00 -1.0000e+00
       13  1    3    3    0    0 +3.3215055446e+01 +6.5629355582e-01 +7.4528540455e+00 3.4047256320e+01 0.0000000000e+00 0.0000e+00 1.0000e+00
<mgrwt>
<rscale>  0 0.98780662E+02</rscale>
<asrwt>0</asrwt>
<pdfrwt beam="2">  1        4 0.15734926E-01 0.98780662E+02</pdfrwt>
<pdfrwt beam="1">  1       -4 0.36693780E-02 0.98780662E+02</pdfrwt>
<totfact> 0.20052123E+04</totfact>
</mgrwt>
</event>
<event>
 5      1 +1.6944000e+03 9.12890500e+01 7.81860800e-03 1.29976000e-01
       -1 -1    0    0    0  501 -0.0000000000e+00 +0.0000000000e+00 +1.7975935574e+02 1.7975935574e+02 0.0000000000e+00 0.0000e+00 1.0000e+00
        1 -1    0    0  501    0 +0.0000000000e+00 -0.0000000000e+00 -1.1590064176e+01 1.1590064176e+01 0.0000000000e+00 0.0000e+00 -1.0000e+00
       23  2    1    2    0    0 +0.0000000000e+00 +0.0000000000e+00 +1.6816929156e+02 1.9134941991e+02 9.1289045766e+01 0.0000e+00 0.0000e+00
      -13  1    3    3    0    0 -3.6257460522e+01 -1.5353596350e+01 +3.5688902558e+01 5.3141642147e+01 0.0000000000e+00 0.0000e+00 1.0000e+00
       13  1    3    3    0    0 +3.6257460522e+01 +1.5353596350e+01 +1.3248038900e+02 1.3820777777e+02 0.0000000000e+00 0.0000e+00 -1.0000e+00
<mgrwt>
<rscale>  0 0.91289046E+02</rscale>
<asrwt>0</asrwt>
<pdfrwt beam="2">  1        1 0.17830869E-02 0.91289046E+02</pdfrwt>
<pdfrwt beam="1">  1       -1 0.27655283E-01 0.91289046E+02</pdfrwt>
<totfact> 0.71266062E+04</totfact>
</mgrwt>
</event>
<event>
 4      1 +1.6944000e+03 2.69059600e+01 7.81860800e-03 1.63504400e-01
        2 -1    0    0  501    0 +0.0000000000e+00 +0.0000000000e+00 +5.8783137615e+00 5.8783137615e+00 0.0000000000e+00 0.0000e+00 1.0000e+00
       -2 -1    0    0    0  501 -0.0000000000e+00 -0.0000000000e+00 -3.0788195574e+01 3.0788195574e+01 0.0000000000e+00 0.0000e+00 -1.0000e+00
      -11  1    1    2    0    0 -1.3073019506e+01 -1.7560073817e+00 -1.6059261383e+01 2.0781897823e+01 0.0000000000e+00 0.0000e+00 -1.0000e+00
       11  1    1    2    0    0 +1.3073019506e+01 +1.7560073817e+00 -8.8506204291e+00 1.5884611513e+01 0.0000000000e+00 0.0000e+00 1.0000e+00
<mgrwt>
<rscale>  0 0.26905960E+02</rscale>
<asrwt>0</asrwt>
<pdfrwt beam="1">  1        2 0.90435595E-03 0.26905960E+02</pdfrwt>
<pdfrwt beam="2">  1       -2 0.47366456E-02 0.26905960E+02</pdfrwt>
<totfact> 0.18585446E+06</totfact>
</mgrwt>
</event>
<event>
 4      1 +1.6944000e+03 3.80376900e+01 7.81860800e-03 1.52316900e-01
       -2 -1    0    0    0  501 -0.0000000000e+00 +0.0000000000e+00 +2.1441259105e+00 2.1441259105e+00 0.0000000000e+00 0.0000e+00 1.0000e+00
        2 -1    0    0  501    0 +0.0000000000e+00 -0.0000000000e+00 -1.6870115763e+02 1.6870115763e+02 0.0000000000e+00 0.0000e+00 -1.0000e+00
      -11  1    1    2    0    0 +1.5522060092e+01 -1.0835979103e+01 -7.5040939977e+01 7.7391830740e+01 0.0000000000e+00 0.0000e+00 1.0000e+00
       11  1    1    2    0    0 -1.5522060092e+01 +1.0835979103e+01 -9.1516091746e+01 9.3453452805e+01 0.0000000000e+00 0.0000e+00 -1.0000e+00
<mgrwt>
<rscale>  0 0.38037693E+02</rscale>
<asrwt>0</asrwt>
<pdfrwt beam="2">  1        2 0.25954024E-01 0.38037693E+02</pdfrwt>
<pdfrwt beam="1">  1       -2 0.32986553E-03 0.38037693E+02</pdfrwt>
<totfact> 0.13673467E+06</totfact>
</mgrwt>
</event>
<event>
 5      1 +1.6944000e+03 9.21295400e+01 7.81860800e-03 1.29777500e-01
        2 -1    0    0  501    0 +0.0000000000e+00 +0.0000000000e+00 +1.1877808022e+02 1.1877808022e+02 0.0000000000e+00 0.0000e+00 1.0000e+00
       -2 -1    0    0    0  501 -0.0000000000e+00 -0.0000000000e+00 -1.7864937303e+01 1.7864937303e+01 0.0000000000e+00 0.0000e+00 -1.0000e+00
       23  2    1    2    0    0 +0.0000000000e+00 +0.0000000000e+00 +1.0091314292e+02 1.3664301753e+02 9.2129538285e+01 0.0000e+00 0.0000e+00
      -11  1    3    3    0    0 -1.5602674639e+01 -4.3057295567e+01 +5.7811140093e+01 7.3752980118e+01 0.0000000000e+00 0.0000e+00 1.0000e+00
       11  1    3    3    0    0 +1.5602674639e+01 +4.3057295567e+01 +4.3102002828e+01 6.2890037409e+01 0.0000000000e+00 0.0000e+00 -1.0000e+00
<mgrwt>
<rscale>  0 0.92129538E+02</rscale>
<asrwt>0</asrwt>
<pdfrwt beam="1">  1        2 0.18273550E-01 0.92129538E+02</pdfrwt>
<pdfrwt beam="2">  1       -2 0.27484520E-02 0.92129538E+02</pdfrwt>
<totfact> 0.12580604E+05</totfact>
</mgrwt>
</event>
<event>
 5      1 +1.6944000e+03 9.44459300e+01 7.81860800e-03 1.29242900e-01
        1 -1    0    0  501    0 +0.0000000000e+00 +0.0000000000e+00 +1.1084572967e+02 1.1084572967e+02 0.0000000000e+00 0.0000e+00 -1.0000e+00
       -1 -1    0    0    0  501 -0.0000000000e+00 -0.0000000000e+00 -2.0118127086e+01 2.0118127086e+01 0.0000000000e+00 0.0000e+00 1.0000e+00
       23  2    1    2    0    0 +0.0000000000e+00 +0.0000000000e+00 +9.0727602581e+01 1.3096385675e+02 9.4445931123e+01 0.0000e+00 0.0000e+00
      -11  1    3    3    0    0 -1.2332892719e+00 -4.5209159517e+01 +2.6522676086e+01 5.2429394937e+01 0.0000000000e+00 0.0000e+00 1.0000e+00
       11  1    3    3    0    0 +1.2332892719e+00 +4.5209159517e+01 +6.4204926495e+01 7.8534461817e+01 0.0000000000e+00 0.0000e+00 -1.0000e+00
<mgrwt>
<rscale>  0 0.94445931E+02</rscale>
<asrwt>0</asrwt>
<pdfrwt beam="1">  1        1 0.17053189E-01 0.94445931E+02</pdfrwt>
<pdfrwt beam="2">  1       -1 0.30950965E-02 0.94445931E+02</pdfrwt>
<totfact> 0.96545447E+04</totfact>
</mgrwt>
</event>
<event>
 5      1 +1.6944000e+03 9.18590000e+01 7.81860800e-03 1.29841100e-01
        1 -1    0    0  501    0 +0.0000000000e+00 +0.0000000000e+00 +5.3923874405e+00 5.3923874405e+00 0.0000000000e+00 0.0000e+00 -1.0000e+00
       -1 -1    0    0    0  501 -0.0000000000e+00 -0.0000000000e+00 -3.9120313996e+02 3.9120313996e+02 0.0000000000e+00 0.0000e+00 1.0000e+00
       23  2    1    2    0    0 +0.0000000000e+00 +0.0000000000e+00 -3.8581075252e+02 3.9659552740e+02 9.1858998441e+01 0.0000e+00 0.0000e+00
      -11  1    3    3    0    0 +4.2228616318e+01 +9.7349195984e+00 -1.2721584451e+02 1.3439455268e+02 0.0000000000e+00 0.0000e+00 -1.0000e+00
       11  1    3    3    0    0 -4.2228616318e+01 -9.7349195984e+00 -2.5859490802e+02 2.6220097473e+02 0.0000000000e+00 0.0000e+00 1.0000e+00
<mgrwt>
<rscale>  0 0.91858998E+02</rscale>
<asrwt>0</asrwt>
<pdfrwt beam="1">  1        1 0.82959779E-03 0.91858998E+02</pdfrwt>
<pdfrwt beam="2">  1       -1 0.60185119E-01 0.91858998E+02</pdfrwt>
<totfact> 0.52843091E+04</totfact>
</mgrwt>
</event>
<event>
 4      1 +1.6944000e+03 2.16954100e+01 7.81860800e-03 1.71357300e-01
       -2 -1    0    0    0  501 -0.0000000000e+00 +0.0000000000e+00 +9.4899212811e+00 9.4899212811e+00 0.0000000000e+00 0.0000e+00 1.0000e+00
        2 -1    0    0  501    0 +0.0000000000e+00 -0.0000000000e+00 -1.2399760460e+01 1.2399760460e+01 0.0000000000e+00 0.0000e+00 -1.0000e+00
      -11  1    1    2    0    0 -1.6232642249e+00 -1.0695932545e+01 -2.2587914914e+00 1.1051701170e+01 0.0000000000e+00 0.0000e+00 1.0000e+00
       11  1    1    2    0    0 +1.6232642249e+00 +1.0695932545e+01 -6.5104768747e-01 1.0837980571e+01 0.0000000000e+00 0.0000e+00 -1.0000e+00
<mgrwt>
<rscale>  0 0.21695414E+02</rscale>
<asrwt>0</asrwt>
<pdfrwt beam="2">  1        2 0.19076555E-02 0.21695414E+02</pdfrwt>
<pdfrwt beam="1">  1       -2 0.14599879E-02 0.21695414E+02</pdfrwt>
<totfact> 0.33267809E+06</totfact>
</mgrwt>
</event>
<event>
 5      1 +1.6944000e+03 8.95133400e+01 7.81860800e-03 1.30403500e-01
       -2 -1    0    0    0  501 -0.0000000000e+00 +0.0000000000e+00 +4.3628591601e+01 4.3628591601e+01 0.0000000000e+00 0.0000e+00 1.0000e+00
        2 -1    0    0  501    0 +0.0000000000e+00 -0.0000000000e+00 -4.5913917490e+01 4.5913917490e+01 0.0000000000e+00 0.0000e+00 -1.0000e+00
       23  2    1    2    0    0 +0.0000000000e+00 +0.0000000000e+00 -2.2853258892e+00 8.9542509091e+01 8.9513341016e+01 0.0000e+00 0.0000e+00
      -11  1    3    3    0    0 +1.2721434516e+01 -2.3128225384e+01 -3.7298732696e+01 4.5694038630e+01 0.0000000000e+00 0.0000e+00 -1.0000e+00
       11  1    3    3    0    0 -1.2721434516e+01 +2.3128225384e+01 +3.5013406807e+01 4.3848470461e+01 0.0000000000e+00 0.0000e+00 1.0000e+00
<mgrwt>
<rscale>  0 0.89513341E+02</rscale>
<asrwt>0</asrwt>
<pdfrwt beam="2">  1        2 0.70636796E-02 0.89513341E+02</pdfrwt>
<pdfrwt beam="1">  1       -2 0.67120910E-02 0.89513341E+02</pdfrwt>
<totfact> 0.10420397E+05</totfact>
</mgrwt>
</event>
<event>
 5      1 +1.6944000e+03 1.01291200e+02 7.81860800e-03 1.27760400e-01
        2 -1    0    0  501    0 +0.0000000000e+00 +0.0000000000e+00 +4.5753824573e+02 4.5753824573e+02 0.0000000000e+00 0.0000e+00 -1.0000e+00
       -2 -1    0    0    0  501 -0.0000000000e+00 -0.0000000000e+00 -5.6060427789e+00 5.6060427789e+00 0.0000000000e+00 0.0000e+00 1.0000e+00
       23  2    1    2    0    0 +0.0000000000e+00 +0.0000000000e+00 +4.5193220296e+02 4.6314428851e+02 1.0129124303e+02 0.0000e+00 0.0000e+00
      -13  1    3    3    0    0 +9.4480417809e+00 -4.7604491756e+01 +2.9215165682e+02 2.9615543843e+02 0.0000000000e+00 0.0000e+00 -1.0000e+00
       13  1    3    3    0    0 -9.4480417809e+00 +4.7604491756e+01 +1.5978054614e+02 1.6698885008e+02 0.0000000000e+00 0.0000e+00 1.0000e+00
<mgrwt>
<rscale>  0 0.10129124E+03</rscale>
<asrwt>0</asrwt>
<pdfrwt beam="1">  1        2 0.70390470E-01 0.10129124E+03</pdfrwt>
<pdfrwt beam="2">  1       -2 0.86246848E-03 0.10129124E+03</pdfrwt>
<totfact> 0.15806951E+05</totfact>
</mgrwt>
</event>
<event>
 5      1 +1.6944000e+03 8.86662700e+01 7.81860800e-03 1.30611400e-01
       -1 -1    0    0    0  501 -0.0000000000e+00 +0.0000000000e+00 +1.9820595811e+01 1.9820595811e+01 0.0000000000e+00 0.0000e+00 1.0000e+00
        1 -1    0    0  501    0 +0.0000000000e+00 -0.0000000000e+00 -9.9160841186e+01 9.9160841186e+01 0.0000000000e+00 0.0000e+00 -1.0000e+00
       23  2    1    2    0    0 +0.0000000000e+00 +0.0000000000e+00 -7.9340245375e+01 1.1898143700e+02 8.8666272131e+01 0.0000e+00 0.0000e+00
      -11  1    3    3    0    0 +2.0605101808e+00 -4.0597849779e+01 -1.5929612587e+01 4.3659863331e+01 0.0000000000e+00 0.0000e+00 1.0000e+00
       11  1    3    3    0    0 -2.0605101808e+00 +4.0597849779e+01 -6.3410632787e+01 7.5321573665e+01 0.0000000000e+00 0.0000e+00 -1.0000e+00
<mgrwt>
<rscale>  0 0.88666272E+02</rscale>
<asrwt>0</asrwt>
<pdfrwt beam="2">  1        1 0.15255514E-01 0.88666272E+02</pdfrwt>
<pdfrwt beam="1">  1       -1 0.30493224E-02 0.88666272E+02</pdfrwt>
<totfact> 0.11253456E+05</totfact>
</mgrwt>
</event>
<event>
 5      1 +1.6944000e+03 8.98505500e+01 7.81860800e-03 1.30321400e-01
        2 -1    0    0  501    0 +0.0000000000e+00 +0.0000000000e+00 +6.4606843923e+01 6.4606843923e+01 0.0000000000e+00 0.0000e+00 1.0000e+00
       -2 -1    0    0    0  501 -0.0000000000e+00 -0.0000000000e+00 -3.1239418535e+01 3.1239418535e+01 0.0000000000e+00 0.0000e+00 -1.0000e+00
       23  2    1    2    0    0 +0.0000000000e+00 +0.0000000000e+00 +3.3367425388e+01 9.5846262458e+01 8.9850547857e+01 0.0000e+00 0.0000e+00
      -11  1    3    3    0    0 -6.3046615563e+00 -4.1291502580e+01 -9.5908643534e-01 4.1781057783e+01 0.0000000000e+00 0.0000e+00 -1.0000e+00
       11  1    3    3    0    0 +6.3046615563e+00 +4.1291502580e+01 +3.4326511824e+01 5.4065204676e+01 0.0000000000e+00 0.0000e+00 1.0000e+00
<mgrwt>
<rscale>  0 0.89850548E+02</rscale>
<asrwt>0</asrwt>
<pdfrwt beam="1">  1        2 0.99395144E-02 0.89850548E+02</pdfrwt>
<pdfrwt beam="2">  1       -2 0.48060644E-02 0.89850548E+02</pdfrwt>
<totfact> 0.11274895E+05</totfact>
</mgrwt>
</event>
<event>
 5      1 +1.6944000e+03 9.10343200e+01 7.81860800e-03 1.30036600e-01
        2 -1    0    0  501    0 +0.0000000000e+00 +0.0000000000e+00 +4.3334297628e+01 4.3334297628e+01 0.0000000000e+00 0.0000e+00 -1.0000e+00
       -2 -1    0    0    0  501 -0.0000000000e+00 -0.0000000000e+00 -4.7809975556e+01 4.7809975556e+01 0.0000000000e+00 0.0000e+00 1.0000e+00
       23  2    1    2    0    0 +0.0000000000e+00 +0.0000000000e+00 -4.4756779275e+00 9.1144273184e+01 9.1034316834e+01 0.0000e+00 0.0000e+00
      -13  1    3    3    0    0 +2.9506894350e+01 +1.0481012694e+01 -3.5312619926e+01 4.7196287643e+01 0.0000000000e+00 0.0000e+00 1.0000e+00
       13  1    3    3    0    0 -2.9506894350e+01 -1.0481012694e+01 +3.0836941998e+01 4.3947985541e+01 0.0000000000e+00 0.0000e+00 -1.0000e+00
<mgrwt>
<rscale>  0 0.91034317E+02</rscale>
<asrwt>0</asrwt>
<pdfrwt beam="1">  1        2 0.66668150E-02 0.91034317E+02</pdfrwt>
<pdfrwt beam="2">  1       -2 0.73553809E-02 0.91034317E+02</pdfrwt>
<totfact> 0.97825971E+04</totfact>
</mgrwt>
</event>
<event>
 5      1 +1.6944000e+03 9.01910800e+01 7.81860800e-03 1.30239000e-01
       -1 -1    0    0    0  501 -0.0000000000e+00 +0.0000000000e+00 +1.0929391568e+02 1.0929391568e+02 0.0000000000e+00 0.0000e+00 1.0000e+00
        1 -1    0    0  501    0 +0.0000000000e+00 -0.0000000000e+00 -1.8606780863e+01 1.8606780863e+01 0.0000000000e+00 0.0000e+00 -1.0000e+00
       23  2    1    2    0    0 +0.0000000000e+00 +0.0000000000e+00 +9.0687134813e+01 1.2790069654e+02 9.0191084674e+01 0.0000e+00 0.0000e+00
      -11  1    3    3    0    0 +1.2777380050e-01 +4.4919980908e+01 +3.9709032018e+01 5.9955218578e+01 0.0000000000e+00 0.0000e+00 -1.0000e+00
       11  1    3    3    0    0 -1.2777380050e-01 -4.4919980908e+01 +5.0978102795e+01 6.7945477962e+01 0.0000000000e+00 0.0000e+00 1.0000e+00
<mgrwt>
<rscale>  0 0.90191085E+02</rscale>
<asrwt>0</asrwt>
<pdfrwt beam="2">  1        1 0.28625817E-02 0.90191085E+02</pdfrwt>
<pdfrwt beam="1">  1       -1 0.16814448E-01 0.90191085E+02</pdfrwt>
<totfact> 0.82281250E+04</totfact>
</mgrwt>
</event>
<event>
 5      1 +1.6944000e+03 9.04294700e+01 7.81860800e-03 1.30181500e-01
       -1 -1    0    0    0  501 -0.0000000000e+00 +0.0000000000e+00 +3.7146866881e+01 3.7146866881e+01 0.0000000000e+00 0.0000e+00 1.0000e+00
        1 -1    0    0  501    0 +0.0000000000e+00 -0.0000000000e+00 -5.5034849523e+01 5.5034849523e+01 0.0000000000e+00 0.0000e+00 -1.0000e+00
       23  2    1    2    0    0 +0.0000000000e+00 +0.0000000000e+00 -1.7887982641e+01 9.2181716404e+01 9.0429469291e+01 0.0000e+00 0.0000e+00
      -11  1    3    3    0    0 +4.2592096828e+01 -1.4038350940e+01 -3.0694943695e+00 4.4950904385e+01 0.0000000000e+00 0.0000e+00 1.0000e+00
       11  1    3    3    0    0 -4.2592096828e+01 +1.4038350940e+01 -1.4818488272e+01 4.7230812019e+01 0.0000000000e+00 0.0000e+00 -1.0000e+00
<mgrwt>
<rscale>  0 0.90429469E+02</rscale>
<asrwt>0</asrwt>
<pdfrwt beam="2">  1        1 0.84668999E-02 0.90429469E+02</pdfrwt>
<pdfrwt beam="1">  1       -1 0.57149026E-02 0.90429469E+02</pdfrwt>
<totfact> 0.97325826E+04</totfact>
</mgrwt>
</event>
<event>
 5      1 +1.6944000e+03 7.23596800e+01 7.81860800e-03 1.35224800e-01
        2 -1    0    0  501    0 +0.0000000000e+00 +0.0000000000e+00 +8.3044538581e+00 8.3044538581e+00 0.0000000000e+00 0.0000e+00 -1.0000e+00
       -2 -1    0    0    0  501 -0.0000000000e+00 -0.0000000000e+00 -1.5762393905e+02 1.5762393905e+02 0.0000000000e+00 0.0000e+00 1.0000e+00
       23  2    1    2    0    0 +0.0000000000e+00 +0.0000000000e+00 -1.4931948519e+02 1.6592839290e+02 7.2359677411e+01 0.0000e+00 0.0000e+00
      -13  1    3    3    0    0 -3.8490384385e+00 -3.5974212328e+01 -7.4997376240e+01 8.3268034037e+01 0.0000000000e+00 0.0000e+00 -1.0000e+00
       13  1    3    3    0    0 +3.8490384385e+00 +3.5974212328e+01 -7.4322108948e+01 8.2660358867e+01 0.0000000000e+00 0.0000e+00 1.0000e+00
<mgrwt>
<rscale>  0 0.72359677E+02</rscale>
<asrwt>0</asrwt>
<pdfrwt beam="1">  1        2 0.12776082E-02 0.72359677E+02</pdfrwt>
<pdfrwt beam="2">  1       -2 0.24249839E-01 0.72359677E+02</pdfrwt>
<totfact> 0.12301171E+05</totfact>
</mgrwt>
</event>
<event>
 5      1 +1.6944000e+03 9.36738800e+01 7.81860800e-03 1.29419100e-01
        2 -1    0    0  501    0 +0.0000000000e+00 +0.0000000000e+00 +2.0921172756e+02 2.0921172756e+02 0.0000000000e+00 0.0000e+00 -1.0000e+00
       -2 -1    0    0    0  501 -0.0000000000e+00 -0.0000000000e+00 -1.0485544597e+01 1.0485544597e+01 0.0000000000e+00 0.0000e+00 1.0000e+00
       23  2    1    2    0    0 +0.0000000000e+00 +0.0000000000e+00 +1.9872618296e+02 2.1969727216e+02 9.3673878956e+01 0.0000e+00 0.0000e+00
      -11  1    3    3    0    0 -3.8232882382e+01 +2.0188456236e+01 +1.4160346325e+02 1.4805697507e+02 0.0000000000e+00 0.0000e+00 -1.0000e+00
       11  1    3    3    0    0 +3.8232882382e+01 -2.0188456236e+01 +5.7122719710e+01 7.1640297093e+01 0.0000000000e+00 0.0000e+00 1.0000e+00
<mgrwt>
<rscale>  0 0.93673879E+02</rscale>
<asrwt>0</asrwt>
<pdfrwt beam="1">  1        2 0.32186417E-01 0.93673879E+02</pdfrwt>
<pdfrwt beam="2">  1       -2 0.16131609E-02 0.93673879E+02</pdfrwt>
<totfact> 0.14618327E+05</totfact>
</mgrwt>
</event>
<event>
 5      1 +1.6944000e+03 9.12338600e+01 7.81860800e-03 1.29989100e-01
       -3 -1    0    0    0  501 -0.0000000000e+00 +0.0000000000e+00 +9.8394008863e+00 9.8394008863e+00 0.0000000000e+00 0.0000e+00 1.0000e+00
        3 -1    0    0  501    0 +0.0000000000e+00 -0.0000000000e+00 -2.1148688604e+02 2.1148688604e+02 0.0000000000e+00 0.0000e+00 -1.0000e+00
       23  2    1    2    0    0 +0.0000000000e+00 +0.0000000000e+00 -2.0164748515e+02 2.2132628692e+02 9.1233858933e+01 0.0000e+00 0.0000e+00
      -11  1    3    3    0    0 +1.9032253131e+01 -3.2241052652e+01 -3.7601008607e+01 5.3061737473e+01 0.0000000000e+00 0.0000e+00 1.0000e+00
       11  1    3    3    0    0 -1.9032253131e+01 +3.2241052652e+01 -1.6404647654e+02 1.6826454945e+02 0.0000000000e+00 0.0000e+00 -1.0000e+00
<mgrwt>
<rscale>  0 0.91233859E+02</rscale>
<asrwt>0</asrwt>
<pdfrwt beam="2">  1        3 0.32536441E-01 0.91233859E+02</pdfrwt>
<pdfrwt beam="1">  1       -3 0.15137541E-02 0.91233859E+02</pdfrwt>
<totfact> 0.27386107E+04</totfact>
</mgrwt>
</event>
<event>
 5      1 +1.6944000e+03 9.18449900e+01 7.81860800e-03 1.29844400e-01
        1 -1    0    0  501    0 +0.0000000000e+00 +0.0000000000e+00 +1.3432510893e+01 1.3432510893e+01 0.0000000000e+00 0.0000e+00 -1.0000e+00
       -1 -1    0    0    0  501 -0.0000000000e+00 -0.0000000000e+00 -1.5699788187e+02 1.5699788187e+02 0.0000000000e+00 0.0000e+00 1.0000e+00
       23  2    1    2    0    0 +0.0000000000e+00 +0.0000000000e+00 -1.4356537098e+02 1.7043039276e+02 9.1844994603e+01 0.0000e+00 0.0000e+00
      -11  1    3    3    0    0 -2.1797641783e+01 -2.1898662898e+01 -1.3482463958e+02 1.3831981803e+02 0.0000000000e+00 0.0000e+00 1.0000e+00
       11  1    3    3    0    0 +2.1797641783e+01 +2.1898662898e+01 -8.7407313997e+00 3.2110574729e+01 0.0000000000e+00 0.0000e+00 -1.0000e+00
<mgrwt>
<rscale>  0 0.91844995E+02</rscale>
<asrwt>0</asrwt>
<pdfrwt beam="1">  1        1 0.20665401E-02 0.91844995E+02</pdfrwt>
<pdfrwt beam="2">  1       -1 0.24153521E-01 0.91844995E+02</pdfrwt>
<totfact> 0.72591252E+04</totfact>
</mgrwt>
</event>
<event>
 4      1 +1.6944000e+03 3.05228800e+01 7.81860800e-03 1.59238000e-01
        2 -1    0    0  501    0 +0.0000000000e+00 +0.0000000000e+00 +5.0357783058e+01 5.0357783058e+01 0.0000000000e+00 0.0000e+00 -1.0000e+00
       -2 -1    0    0    0  501 -0.0000000000e+00 -0.0000000000e+00 -4.6251364529e+00 4.6251364529e+00 0.0000000000e+00 0.0000e+00 1.0000e+00
      -13  1    1    2    0    0 -1.1327365431e+01 -2.9436656468e+00 +4.0510274244e+01 4.2167009550e+01 0.0000000000e+00 0.0000e+00 -1.0000e+00
       13  1    1    2    0    0 +1.1327365431e+01 +2.9436656468e+00 +5.2223723612e+00 1.2815909961e+01 0.0000000000e+00 0.0000e+00 1.0000e+00
<mgrwt>
<rscale>  0 0.30522884E+02</rscale>
<asrwt>0</asrwt>
<pdfrwt beam="1">  1        2 0.77473508E-02 0.30522884E+02</pdfrwt>
<pdfrwt beam="2">  1       -2 0.71155949E-03 0.30522884E+02</pdfrwt>
<totfact> 0.17468296E+06</totfact>
</mgrwt>
</event>
<event>
 5      1 +1.6944000e+03 9.13116400e+01 7.81860800e-03 1.29970600e-01
        1 -1    0    0  501    0 +0.0000000000e+00 +0.0000000000e+00 +1.0620589754e+01 1.0620589754e+01 0.0000000000e+00 0.0000e+00 -1.0000e+00
       -1 -1    0    0    0  501 -0.0000000000e+00 -0.0000000000e+00 -1.9626537008e+02 1.9626537008e+02 0.0000000000e+00 0.0000e+00 1.0000e+00
       23  2    1    2    0    0 +0.0000000000e+00 +0.0000000000e+00 -1.8564478033e+02 2.0688595984e+02 9.1311641722e+01 0.0000e+00 0.0000e+00
      -11  1    3    3    0    0 +2.0126740650e+01 +2.1353409677e+01 -1.3574239148e+01 3.2331312415e+01 0.0000000000e+00 0.0000e+00 -1.0000e+00
       11  1    3    3    0    0 -2.0126740650e+01 -2.1353409677e+01 -1.7207054118e+02 1.7455464742e+02 0.0000000000e+00 0.0000e+00 1.0000e+00
<mgrwt>
<rscale>  0 0.91311642E+02</rscale>
<asrwt>0</asrwt>
<pdfrwt beam="1">  1        1 0.16339370E-02 0.91311642E+02</pdfrwt>
<pdfrwt beam="2">  1       -1 0.30194671E-01 0.91311642E+02</pdfrwt>
<totfact> 0.69529054E+04</totfact>
</mgrwt>
</event>
<event>
 5      1 +1.6944000e+03 9.50800800e+01 7.81860800e-03 1.29099600e-01
       -1 -1    0    0    0  501 -0.0000000000e+00 +0.0000000000e+00 +1.1524913750e+01 1.1524913750e+01 0.0000000000e+00 0.0000e+00 1.0000e+00
        1 -1    0    0  501    0 +0.0000000000e+00 -0.0000000000e+00 -1.9610170261e+02 1.9610170261e+02 0.0000000000e+00 0.0000e+00 -1.0000e+00
       23  2    1    2    0    0 +0.0000000000e+00 +0.0000000000e+00 -1.8457678886e+02 2.0762661636e+02 9.5080075912e+01 0.0000e+00 0.0000e+00
      -11  1    3    3    0    0 -1.7777750522e+01 -4.1064440723e+01 -1.2734471300e+02 1.3497782275e+02 0.0000000000e+00 0.0000e+00 -1.0000e+00
       11  1    3    3    0    0 +1.7777750522e+01 +4.1064440723e+01 -5.7232075858e+01 7.2648793607e+01 0.0000000000e+00 0.0000e+00 1.0000e+00
<mgrwt>
<rscale>  0 0.95080076E+02</rscale>
<asrwt>0</asrwt>
<pdfrwt beam="2">  1        1 0.30169494E-01 0.95080076E+02</pdfrwt>
<pdfrwt beam="1">  1       -1 0.17730636E-02 0.95080076E+02</pdfrwt>
<totfact> 0.10537305E+05</totfact>
</mgrwt>
</event>
<event>
 5      1 +1.6944000e+03 9.06259000e+01 7.81860800e-03 1.30134300e-01
        2 -1    0    0  501    0 +0.0000000000e+00 +0.0000000000e+00 +8.0257007007e+01 8.0257007007e+01 0.0000000000e+00 0.0000e+00 -1.0000e+00
       -2 -1    0    0    0  501 -0.0000000000e+00 -0.0000000000e+00 -2.5583605988e+01 2.5583605988e+01 0.0000000000e+00 0.0000e+00 1.0000e+00
       23  2    1    2    0    0 +0.0000000000e+00 +0.0000000000e+00 +5.4673401019e+01 1.0584061300e+02 9.0625904577e+01 0.0000e+00 0.0000e+00
      -11  1    3    3    0    0 +1.9557790043e+01 +4.0845728331e+01 +2.9139549507e+01 5.3851592546e+01 0.0000000000e+00 0.0000e+00 1.0000e+00
       11  1    3    3    0    0 -1.9557790043e+01 -4.0845728331e+01 +2.5533851512e+01 5.1989020450e+01 0.0000000000e+00 0.0000e+00 -1.0000e+00
<mgrwt>
<rscale>  0 0.90625905E+02</rscale>
<asrwt>0</asrwt>
<pdfrwt beam="1">  1        2 0.12347232E-01 0.90625905E+02</pdfrwt>
<pdfrwt beam="2">  1       -2 0.39359394E-02 0.90625905E+02</pdfrwt>
<totfact> 0.11691187E+05</totfact>
</mgrwt>
</event>
<event>
 5      1 +1.6944000e+03 8.59101000e+01 7.81860800e-03 1.31307000e-01
        4 -1    0    0  501    0 +0.0000000000e+00 +0.0000000000e+00 +1.9423519318e+02 1.9423519318e+02 0.0000000000e+00 0.0000e+00 -1.0000e+00
       -4 -1    0    0    0  501 -0.0000000000e+00 -0.0000000000e+00 -9.4994964039e+00 9.4994964039e+00 0.0000000000e+00 0.0000e+00 1.0000e+00
       23  2    1    2    0    0 +0.0000000000e+00 +0.0000000000e+00 +1.8473569678e+02 2.0373468959e+02 8.5910104625e+01 0.0000e+00 0.0000e+00
      -13  1    3    3    0    0 -3.5537958341e+01 +9.9165270410e+00 +1.4453261168e+02 1.4916755623e+02 0.0000000000e+00 0.0000e+00 -1.0000e+00
       13  1    3    3    0    0 +3.5537958341e+01 -9.9165270410e+00 +4.0203085097e+01 5.4567133359e+01 0.0000000000e+00 0.0000e+00 1.0000e+00
<mgrwt>
<rscale>  0 0.85910105E+02</rscale>
<asrwt>0</asrwt>
<pdfrwt beam="1">  1        4 0.29882334E-01 0.85910105E+02</pdfrwt>
<pdfrwt beam="2">  1       -4 0.14614611E-02 0.85910105E+02</pdfrwt>
<totfact> 0.24873557E+04</totfact>
</mgrwt>
</event>
<event>
 5      1 +1.6944000e+03 8.97904900e+01 7.81860800e-03 1.30336000e-01
       -2 -1    0    0    0  501 -0.0000000000e+00 +0.0000000000e+00 +5.8329886929e+01 5.8329886929e+01 0.0000000000e+00 0.0000e+00 1.0000e+00
        2 -1    0    0  501    0 +0.0000000000e+00 -0.0000000000e+00 -3.4554896001e+01 3.4554896001e+01 0.0000000000e+00 0.0000e+00 -1.0000e+00
       23  2    1    2    0    0 +0.0000000000e+00 +0.0000000000e+00 +2.3774990928e+01 9.2884782931e+01 8.9790493408e+01 0.0000e+00 0.0000e+00
      -13  1    3    3    0    0 +1.4882117655e+00 -2.3306641222e+01 -2.7776624670e+01 3.6289877064e+01 0.0000000000e+00 0.0000e+00 -1.0000e+00
       13  1    3    3    0    0 -1.4882117655e+00 +2.3306641222e+01 +5.1551615598e+01 5.6594905866e+01 0.0000000000e+00 0.0000e+00 1.0000e+00
<mgrwt>
<rscale>  0 0.89790493E+02</rscale>
<asrwt>0</asrwt>
<pdfrwt beam="2">  1        2 0.53161378E-02 0.89790493E+02</pdfrwt>
<pdfrwt beam="1">  1       -2 0.89738288E-02 0.89790493E+02</pdfrwt>
<totfact> 0.96037328E+04</totfact>
</mgrwt>
</event>
<event>
 4      1 +1.6944000e+03 4.23874600e+01 7.81860800e-03 1.49134300e-01
       -2 -1    0    0    0  501 -0.0000000000e+00 +0.0000000000e+00 +3.7656257263e+01 3.7656257263e+01 0.0000000000e+00 0.0000e+00 -1.0000e+00
        2 -1    0    0  501    0 +0.0000000000e+00 -0.0000000000e+00 -1.1928272777e+01 1.1928272777e+01 0.0000000000e+00 0.0000e+00 1.0000e+00
      -11  1    1    2    0    0 -4.3559081898e+00 -1.6311041541e+01 -2.1235154544e+00 1.7015678952e+01 0.0000000000e+00 0.0000e+00 1.0000e+00
       11  1    1    2    0    0 +4.3559081898e+00 +1.6311041541e+01 +2.7851499940e+01 3.2568851089e+01 0.0000000000e+00 0.0000e+00 -1.0000e+00
<mgrwt>
<rscale>  0 0.42387456E+02</rscale>
<asrwt>0</asrwt>
<pdfrwt beam="2">  1        2 0.18351189E-02 0.42387456E+02</pdfrwt>
<pdfrwt beam="1">  1       -2 0.57932703E-02 0.42387456E+02</pdfrwt>
<totfact> 0.63212313E+05</totfact>
</mgrwt>
</event>
<event>
 5      1 +1.6944000e+03 9.83770400e+01 7.81860800e-03 1.28374600e-01
        1 -1    0    0  501    0 +0.0000000000e+00 +0.0000000000e+00 +1.4584468093e+02 1.4584468093e+02 0.0000000000e+00 0.0000e+00 -1.0000e+00
       -1 -1    0    0    0  501 -0.0000000000e+00 -0.0000000000e+00 -1.6589638757e+01 1.6589638757e+01 0.0000000000e+00 0.0000e+00 1.0000e+00
       23  2    1    2    0    0 +0.0000000000e+00 +0.0000000000e+00 +1.2925504217e+02 1.6243431969e+02 9.8377041453e+01 0.0000e+00 0.0000e+00
      -11  1    3    3    0    0 -3.0221578573e+01 +1.8110163881e+01 +7.9525291271e+00 3.6118756440e+01 0.0000000000e+00 0.0000e+00 1.0000e+00
       11  1    3    3    0    0 +3.0221578573e+01 -1.8110163881e+01 +1.2130251304e+02 1.2631556325e+02 0.0000000000e+00 0.0000e+00 -1.0000e+00
<mgrwt>
<rscale>  0 0.98377041E+02</rscale>
<asrwt>0</asrwt>
<pdfrwt beam="1">  1        1 0.22437642E-01 0.98377041E+02</pdfrwt>
<pdfrwt beam="2">  1       -1 0.25522522E-02 0.98377041E+02</pdfrwt>
<totfact> 0.90766784E+04</totfact>
</mgrwt>
</event>
<event>
 5      1 +1.6944000e+03 8.90677400e+01 7.81860800e-03 1.30512500e-01
       -1 -1    0    0    0  501 -0.0000000000e+00 +0.0000000000e+00 +6.7502556345e+00 6.7502556345e+00 0.0000000000e+00 0.0000e+00 1.0000e+00
        1 -1    0    0  501    0 +0.0000000000e+00 -0.0000000000e+00 -2.9380602141e+02 2.9380602141e+02 0.0000000000e+00 0.0000e+00 -1.0000e+00
       23  2    1    2    0    0 +0.0000000000e+00 +0.0000000000e+00 -2.8705576578e+02 3.0055627705e+02 8.9067743914e+01 0.0000e+00 0.0000e+00
      -11  1    3    3    0    0 +4.2421156975e+01 -1.2110328275e+01 -1.2298761295e+02 1.3066050493e+02 0.0000000000e+00 0.0000e+00 1.0000e+00
       11  1    3    3    0    0 -4.2421156975e+01 +1.2110328275e+01 -1.6406815283e+02 1.6989577212e+02 0.0000000000e+00 0.0000e+00 -1.0000e+00
<mgrwt>
<rscale>  0 0.89067744E+02</rscale>
<asrwt>0</asrwt>
<pdfrwt beam="2">  1        1 0.45200920E-01 0.89067744E+02</pdfrwt>
<pdfrwt beam="1">  1       -1 0.10385010E-02 0.89067744E+02</pdfrwt>
<totfact> 0.13581069E+05</totfact>
</mgrwt>
</event>
<event>
 5      1 +1.6944000e+03 1.00046500e+02 7.81860800e-03 1.28019800e-01
       -2 -1    0    0    0  501 -0.0000000000e+00 +0.0000000000e+00 +3.5940435804e+01 3.5940435804e+01 0.0000000000e+00 0.0000e+00 1.0000e+00
        2 -1    0    0  501    0 +0.0000000000e+00 -0.0000000000e+00 -6.9624189240e+01 6.9624189240e+01 0.0000000000e+00 0.0000e+00 -1.0000e+00
       23  2    1    2    0    0 +0.0000000000e+00 +0.0000000000e+00 -3.3683753436e+01 1.0556462504e+02 1.0004646328e+02 0.0000e+00 0.0000e+00
      -11  1    3    3    0    0 +2.8596999909e+01 -2.6282462178e+01 +1.6420942824e+01 4.2168751288e+01 0.0000000000e+00 0.0000e+00 1.0000e+00
       11  1    3    3    0    0 -2.8596999909e+01 +2.6282462178e+01 -5.0104696259e+01 6.3395873755e+01 0.0000000000e+00 0.0000e+00 -1.0000e+00
<mgrwt>
<rscale>  0 0.10004646E+03</rscale>
<asrwt>0</asrwt>
<pdfrwt beam="2">  1        2 0.10711414E-01 0.10004646E+03</pdfrwt>
<pdfrwt beam="1">  1       -2 0.55292979E-02 0.10004646E+03</pdfrwt>
<totfact> 0.84991162E+04</totfact>
</mgrwt>
</event>
<event>
 5      1 +1.6944000e+03 9.05420100e+01 7.81860800e-03 1.30154400e-01
       -1 -1    0    0    0  501 -0.0000000000e+00 +0.0000000000e+00 +2.8971253721e+01 2.8971253721e+01 0.0000000000e+00 0.0000e+00 1.0000e+00
        1 -1    0    0  501    0 +0.0000000000e+00 -0.0000000000e+00 -7.0741290118e+01 7.0741290118e+01 0.0000000000e+00 0.0000e+00 -1.0000e+00
       23  2    1    2    0    0 +0.0000000000e+00 +0.0000000000e+00 -4.1770036397e+01 9.9712543840e+01 9.0542009357e+01 0.0000e+00 0.0000e+00
      -13  1    3    3    0    0 -5.3840460210e-01 +4.4432597790e+01 -1.1352811592e+01 4.5863187383e+01 0.0000000000e+00 0.0000e+00 1.0000e+00
       13  1    3    3    0    0 +5.3840460210e-01 -4.4432597790e+01 -3.0417224805e+01 5.3849356456e+01 0.0000000000e+00 0.0000e+00 -1.0000e+00
<mgrwt>
<rscale>  0 0.90542009E+02</rscale>
<asrwt>0</asrwt>
<pdfrwt beam="2">  1        1 0.10883275E-01 0.90542009E+02</pdfrwt>
<pdfrwt beam="1">  1       -1 0.44571160E-02 0.90542009E+02</pdfrwt>
<totfact> 0.10074768E+05</totfact>
</mgrwt>
</event>
<event>
 5      1 +1.6944000e+03 9.26240100e+01 7.81860800e-03 1.29661900e-01
        4 -1    0    0  501    0 +0.0000000000e+00 +0.0000000000e+00 +4.6894912887e+01 4.6894912887e+01 0.0000000000e+00 0.0000e+00 -1.0000e+00
       -4 -1    0    0    0  501 -0.0000000000e+00 -0.0000000000e+00 -4.5736339653e+01 4.5736339653e+01 0.0000000000e+00 0.0000e+00 1.0000e+00
       23  2    1    2    0    0 +0.0000000000e+00 +0.0000000000e+00 +1.1585732344e+00 9.2631252540e+01 9.2624006905e+01 0.0000e+00 0.0000e+00
      -11  1    3    3    0    0 -5.1844161026e-01 -2.1599392718e+01 -4.0387305307e+01 4.5803241998e+01 0.0000000000e+00 0.0000e+00 1.0000e+00
       11  1    3    3    0    0 +5.1844161026e-01 +2.1599392718e+01 +4.1545878542e+01 4.6828010542e+01 0.0000000000e+00 0.0000e+00 -1.0000e+00
<mgrwt>
<rscale>  0 0.92624007E+02</rscale>
<asrwt>0</asrwt>
<pdfrwt beam="1">  1        4 0.72146020E-02 0.92624007E+02</pdfrwt>
<pdfrwt beam="2">  1       -4 0.70363600E-02 0.92624007E+02</pdfrwt>
<totfact> 0.25792951E+04</totfact>
</mgrwt>
</event>
<event>
 5      1 +1.6944000e+03 9.38131900e+01 7.81860800e-03 1.29387200e-01
        1 -1    0    0  501    0 +0.0000000000e+00 +0.0000000000e+00 +4.0796216099e+01 4.0796216099e+01 0.0000000000e+00 0.0000e+00 -1.0000e+00
       -1 -1    0    0    0  501 -0.0000000000e+00 -0.0000000000e+00 -5.3932177030e+01 5.3932177030e+01 0.0000000000e+00 0.0000e+00 1.0000e+00
       23  2    1    2    0    0 +0.0000000000e+00 +0.0000000000e+00 -1.3135960932e+01 9.4728393129e+01 9.3813192011e+01 0.0000e+00 0.0000e+00
      -13  1    3    3    0    0 +1.3938419966e+01 -1.3514567772e+01 +3.6548767463e+01 4.1385208665e+01 0.0000000000e+00 0.0000e+00 -1.0000e+00
       13  1    3    3    0    0 -1.3938419966e+01 +1.3514567772e+01 -4.9684728394e+01 5.3343184464e+01 0.0000000000e+00 0.0000e+00 1.0000e+00
<mgrwt>
<rscale>  0 0.93813192E+02</rscale>
<asrwt>0</asrwt>
<pdfrwt beam="1">  1        1 0.62763409E-02 0.93813192E+02</pdfrwt>
<pdfrwt beam="2">  1       -1 0.82972580E-02 0.93813192E+02</pdfrwt>
<totfact> 0.83884367E+04</totfact>
</mgrwt>
</event>
<event>
 5      1 +1.6944000e+03 9.03026600e+01 7.81860800e-03 1.30212000e-01
        1 -1    0    0  501    0 +0.0000000000e+00 +0.0000000000e+00 +1.3326522838e+02 1.3326522838e+02 0.0000000000e+00 0.0000e+00 -1.0000e+00
       -1 -1    0    0    0  501 -0.0000000000e+00 -0.0000000000e+00 -1.5297632994e+01 1.5297632994e+01 0.0000000000e+00 0.0000e+00 1.0000e+00
       23  2    1    2    0    0 +0.0000000000e+00 +0.0000000000e+00 +1.1796759539e+02 1.4856286138e+02 9.0302658978e+01 0.0000e+00 0.0000e+00
      -11  1    3    3    0    0 +2.2992636462e+01 +1.2184225990e+01 -1.7209508343e+00 2.6078312181e+01 0.0000000000e+00 0.0000e+00 1.0000e+00
       11  1    3    3    0    0 -2.2992636462e+01 -1.2184225990e+01 +1.1968854622e+02 1.2248454919e+02 0.0000000000e+00 0.0000e+00 -1.0000e+00
<mgrwt>
<rscale>  0 0.90302659E+02</rscale>
<asrwt>0</asrwt>
<pdfrwt beam="1">  1        1 0.20502342E-01 0.90302659E+02</pdfrwt>
<pdfrwt beam="2">  1       -1 0.23534821E-02 0.90302659E+02</pdfrwt>
<totfact> 0.11264616E+05</totfact>
</mgrwt>
</event>
<event>
 5      1 +1.6944000e+03 9.08717100e+01 7.81860800e-03 1.30075400e-01
       -1 -1    0    0    0  501 -0.0000000000e+00 +0.0000000000e+00 +7.2064982734e+00 7.2064982734e+00 0.0000000000e+00 0.0000e+00 1.0000e+00
        1 -1    0    0  501    0 +0.0000000000e+00 -0.0000000000e+00 -2.8646601992e+02 2.8646601992e+02 0.0000000000e+00 0.0000e+00 -1.0000e+00
       23  2    1    2    0    0 +0.0000000000e+00 +0.0000000000e+00 -2.7925952164e+02 2.9367251819e+02 9.0871709083e+01 0.0000e+00 0.0000e+00
      -13  1    3    3    0    0 -3.9441832635e+01 +3.3878987755e+00 -6.7562920368e+01 7.8306348583e+01 0.0000000000e+00 0.0000e+00 1.0000e+00
       13  1    3    3    0    0 +3.9441832635e+01 -3.3878987755e+00 -2.1169660127e+02 2.1536616961e+02 0.0000000000e+00 0.0000e+00 -1.0000e+00
<mgrwt>
<rscale>  0 0.90871709E+02</rscale>
<asrwt>0</asrwt>
<pdfrwt beam="2">  1        1 0.44071692E-01 0.90871709E+02</pdfrwt>
<pdfrwt beam="1">  1       -1 0.11086921E-02 0.90871709E+02</pdfrwt>
<totfact> 0.12813232E+05</totfact>
</mgrwt>
</event>
<event>
 5      1 +1.6944000e+03 9.20226900e+01 7.81860800e-03 1.29802600e-01
        2 -1    0    0  501    0 +0.0000000000e+00 +0.0000000000e+00 +2.6270868530e+02 2.6270868530e+02 0.0000000000e+00 0.0000e+00 -1.0000e+00
       -2 -1    0    0    0  501 -0.0000000000e+00 -0.0000000000e+00 -8.0585224271e+00 8.0585224271e+00 0.0000000000e+00 0.0000e+00 1.0000e+00
       23  2    1    2    0    0 +0.0000000000e+00 +0.0000000000e+00 +2.5465016288e+02 2.7076720773e+02 9.2022689209e+01 0.0000e+00 0.0000e+00
      -11  1    3    3    0    0 -2.1080313316e+01 -3.7385540835e+01 +1.7611792059e+02 1.8127211652e+02 0.0000000000e+00 0.0000e+00 -1.0000e+00
       11  1    3    3    0    0 +2.1080313316e+01 +3.7385540835e+01 +7.8532242282e+01 8.9495091211e+01 0.0000000000e+00 0.0000e+00 1.0000e+00
<mgrwt>
<rscale>  0 0.92022689E+02</rscale>
<asrwt>0</asrwt>
<pdfrwt beam="1">  1        2 0.40416714E-01 0.92022689E+02</pdfrwt>
<pdfrwt beam="2">  1       -2 0.12397729E-02 0.92022689E+02</pdfrwt>
<totfact> 0.16680419E+05</totfact>
</mgrwt>
</event>
<event>
 5      1 +1.6944000e+03 9.16381300e+01 7.81860800e-03 1.29893300e-01
       -4 -1    0    0    0  501 -0.0000000000e+00 +0.0000000000e+00 +5.0186249040e+01 5.0186249040e+01 0.0000000000e+00 0.0000e+00 1.0000e+00
        4 -1    0    0  501    0 +0.0000000000e+00 -0.0000000000e+00 -4.1831911670e+01 4.1831911670e+01 0.0000000000e+00 0.0000e+00 -1.0000e+00
       23  2    1    2    0    0 +0.0000000000e+00 +0.0000000000e+00 +8.3543373691e+00 9.2018160710e+01 9.1638130424e+01 0.0000e+00 0.0000e+00
      -13  1    3    3    0    0 -2.2755082948e+01 +3.6341493084e+01 +2.0396205514e+01 4.7481608217e+01 0.0000000000e+00 0.0000e+00 1.0000e+00
       13  1    3    3    0    0 +2.2755082948e+01 -3.6341493084e+01 -1.2041868144e+01 4.4536552493e+01 0.0000000000e+00 0.0000e+00 -1.0000e+00
<mgrwt>
<rscale>  0 0.91638130E+02</rscale>
<asrwt>0</asrwt>
<pdfrwt beam="2">  1        4 0.64356787E-02 0.91638130E+02</pdfrwt>
<pdfrwt beam="1">  1       -4 0.77209614E-02 0.91638130E+02</pdfrwt>
<totfact> 0.26594583E+04</totfact>
</mgrwt>
</event>
<event>
 5      1 +1.6944000e+03 9.16240600e+01 7.81860800e-03 1.29896600e-01
       -3 -1    0    0    0  501 -0.0000000000e+00 +0.0000000000e+00 +3.1478749349e+01 3.1478749349e+01 0.0000000000e+00 0.0000e+00 1.0000e+00
        3 -1    0    0  501    0 +0.0000000000e+00 -0.0000000000e+00 -6.6671711538e+01 6.6671711538e+01 0.0000000000e+00 0.0000e+00 -1.0000e+00
       23  2    1    2    0    0 +0.0000000000e+00 +0.0000000000e+00 -3.5192962188e+01 9.8150460887e+01 9.1624060076e+01 0.0000e+00 0.0000e+00
      -13  1    3    3    0    0 +4.3409882251e+01 +1.0717231918e+01 -2.8280097882e+01 5.2905962549e+01 0.0000000000e+00 0.0000e+00 -1.0000e+00
       13  1    3    3    0    0 -4.3409882251e+01 -1.0717231918e+01 -6.9128643067e+00 4.5244498339e+01 0.0000000000e+00 0.0000e+00 1.0000e+00
<mgrwt>
<rscale>  0 0.91624060E+02</rscale>
<asrwt>0</asrwt>
<pdfrwt beam="2">  1        3 0.10257186E-01 0.91624060E+02</pdfrwt>
<pdfrwt beam="1">  1       -3 0.48428845E-02 0.91624060E+02</pdfrwt>
<totfact> 0.34347220E+04</totfact>
</mgrwt>
</event>
<event>
 4      1 +1.6944000e+03 2.72605200e+01 7.81860800e-03 1.63050700e-01
        2 -1    0    0  501    0 +0.0000000000e+00 +0.0000000000e+00 +2.4647388576e+00 2.4647388576e+00 0.0000000000e+00 0.0000e+00 1.0000e+00
       -2 -1    0    0    0  501 -0.0000000000e+00 -0.0000000000e+00 -7.5376742030e+01 7.5376742030e+01 0.0000000000e+00 0.0000e+00 -1.0000e+00
      -13  1    1    2    0    0 -8.6901815796e+00 -6.9920546260e+00 -5.8826512246e+01 5.9874590827e+01 0.0000000000e+00 0.0000e+00 1.0000e+00
       13  1    1    2    0    0 +8.6901815796e+00 +6.9920546260e+00 -1.4085490926e+01 1.7966890060e+01 0.0000000000e+00 0.0000e+00 -1.0000e+00
<mgrwt>
<rscale>  0 0.27260520E+02</rscale>
<asrwt>0</asrwt>
<pdfrwt beam="1">  1        2 0.37919060E-03 0.27260520E+02</pdfrwt>
<pdfrwt beam="2">  1       -2 0.11596422E-01 0.27260520E+02</pdfrwt>
<totfact> 0.15816693E+06</totfact>
</mgrwt>
</event>
<event>
 5      1 +1.6944000e+03 9.23118800e+01 7.81860800e-03 1.29734800e-01
        2 -1    0    0  501    0 +0.0000000000e+00 +0.0000000000e+00 +3.5195464924e+01 3.5195464924e+01 0.0000000000e+00 0.0000e+00 -1.0000e+00
       -2 -1    0    0    0  501 -0.0000000000e+00 -0.0000000000e+00 -6.0529700931e+01 6.0529700931e+01 0.0000000000e+00 0.0000e+00 1.0000e+00
       23  2    1    2    0    0 +0.0000000000e+00 +0.0000000000e+00 -2.5334236006e+01 9.5725165855e+01 9.2311883655e+01 0.0000e+00 0.0000e+00
      -11  1    3    3    0    0 -1.1557918866e+01 +4.1230552833e+01 +5.1985890683e+00 4.3134317008e+01 0.0000000000e+00 0.0000e+00 -1.0000e+00
       11  1    3    3    0    0 +1.1557918866e+01 -4.1230552833e+01 -3.0532825075e+01 5.2590848847e+01 0.0000000000e+00 0.0000e+00 1.0000e+00
<mgrwt>
<rscale>  0 0.92311884E+02</rscale>
<asrwt>0</asrwt>
<pdfrwt beam="1">  1        2 0.54146869E-02 0.92311884E+02</pdfrwt>
<pdfrwt beam="2">  1       -2 0.93122617E-02 0.92311884E+02</pdfrwt>
<totfact> 0.88982701E+04</totfact>
</mgrwt>
</event>
<event>
 5      1 +1.6944000e+03 8.90794400e+01 7.81860800e-03 1.30509600e-01
       -1 -1    0    0    0  501 -0.0000000000e+00 +0.0000000000e+00 +1.8230388299e+01 1.8230388299e+01 0.0000000000e+00 0.0000e+00 1.0000e+00
        1 -1    0    0  501    0 +0.0000000000e+00 -0.0000000000e+00 -1.0881758708e+02 1.0881758708e+02 0.0000000000e+00 0.0000e+00 -1.0000e+00
       23  2    1    2    0    0 +0.0000000000e+00 +0.0000000000e+00 -9.0587198782e+01 1.2704797538e+02 8.9079444683e+01 0.0000e+00 0.0000e+00
      -13  1    3    3    0    0 +1.8181986828e+01 +1.2766326712e+01 +9.7638256994e+00 2.4267180203e+01 0.0000000000e+00 0.0000e+00 1.0000e+00
       13  1    3    3    0    0 -1.8181986828e+01 -1.2766326712e+01 -1.0035102448e+02 1.0278079518e+02 0.0000000000e+00 0.0000e+00 -1.0000e+00
<mgrwt>
<rscale>  0 0.89079445E+02</rscale>
<asrwt>0</asrwt>
<pdfrwt beam="2">  1        1 0.16741167E-01 0.89079445E+02</pdfrwt>
<pdfrwt beam="1">  1       -1 0.28046752E-02 0.89079445E+02</pdfrwt>
<totfact> 0.11285010E+05</totfact>
</mgrwt>
</event>
<event>
 4      1 +1.6944000e+03 2.38071600e+01 7.81860800e-03 1.67875100e-01
        2 -1    0    0  501    0 +0.0000000000e+00 +0.0000000000e+00 +1.0450841373e+01 1.0450841373e+01 0.0000000000e+00 0.0000e+00 -1.0000e+00
       -2 -1    0    0    0  501 -0.0000000000e+00 -0.0000000000e+00 -1.3558254256e+01 1.3558254256e+01 0.0000000000e+00 0.0000e+00 1.0000e+00
      -13  1    1    2    0    0 -4.9847604601e+00 +8.8459946361e+00 -7.8189475509e+00 1.2815435956e+01 0.0000000000e+00 0.0000e+00 1.0000e+00
       13  1    1    2    0    0 +4.9847604601e+00 -8.8459946361e+00 +4.7115346679e+00 1.1193659673e+01 0.0000000000e+00 0.0000e+00 -1.0000e+00
<mgrwt>
<rscale>  0 0.23807156E+02</rscale>
<asrwt>0</asrwt>
<pdfrwt beam="1">  1        2 0.16078218E-02 0.23807156E+02</pdfrwt>
<pdfrwt beam="2">  1       -2 0.20858853E-02 0.23807156E+02</pdfrwt>
<totfact> 0.26404558E+06</totfact>
</mgrwt>
</event>
<event>
 5      1 +1.6944000e+03 6.84166500e+01 7.81860800e-03 1.36556200e-01
        2 -1    0    0  501    0 +0.0000000000e+00 +0.0000000000e+00 +8.4285085533e+01 8.4285085533e+01 0.0000000000e+00 0.0000e+00 -1.0000e+00
       -2 -1    0    0    0  501 -0.0000000000e+00 -0.0000000000e+00 -1.3883945434e+01 1.3883945434e+01 0.0000000000e+00 0.0000e+00 1.0000e+00
       23  2    1    2    0    0 +0.0000000000e+00 +0.0000000000e+00 +7.0401140099e+01 9.8169030967e+01 6.8416650852e+01 0.0000e+00 0.0000e+00
      -13  1    3    3    0    0 +3.5831604402e+00 +1.6107771335e+01 +7.8196677945e+01 7.9918832435e+01 0.0000000000e+00 0.0000e+00 -1.0000e+00
       13  1    3    3    0    0 -3.5831604402e+00 -1.6107771335e+01 -7.7955378465e+00 1.8250198532e+01 0.0000000000e+00 0.0000e+00 1.0000e+00
<mgrwt>
<rscale>  0 0.68416651E+02</rscale>
<asrwt>0</asrwt>
<pdfrwt beam="1">  1        2 0.12966936E-01 0.68416651E+02</pdfrwt>
<pdfrwt beam="2">  1       -2 0.21359917E-02 0.68416651E+02</pdfrwt>
<totfact> 0.25403734E+05</totfact>
</mgrwt>
</event>
<event>
 5      1 +1.6944000e+03 9.08356200e+01 7.81860800e-03 1.30084100e-01
       -1 -1    0    0    0  501 -0.0000000000e+00 +0.0000000000e+00 +9.5997249055e+01 9.5997249055e+01 0.0000000000e+00 0.0000e+00 1.0000e+00
        1 -1    0    0  501    0 +0.0000000000e+00 -0.0000000000e+00 -2.1487879123e+01 2.1487879123e+01 0.0000000000e+00 0.0000e+00 -1.0000e+00
       23  2    1    2    0    0 +0.0000000000e+00 +0.0000000000e+00 +7.4509369933e+01 1.1748512818e+02 9.0835616006e+01 0.0000e+00 0.0000e+00
      -11  1    3    3    0    0 +1.7672415779e+01 +3.2896491564e+01 +7.0690137947e+01 7.9947414214e+01 0.0000000000e+00 0.0000e+00 1.0000e+00
       11  1    3    3    0    0 -1.7672415779e+01 -3.2896491564e+01 +3.8192319858e+00 3.7537713963e+01 0.0000000000e+00 0.0000e+00 -1.0000e+00
<mgrwt>
<rscale>  0 0.90835616E+02</rscale>
<asrwt>0</asrwt>
<pdfrwt beam="2">  1        1 0.33058276E-02 0.90835616E+02</pdfrwt>
<pdfrwt beam="1">  1       -1 0.14768807E-01 0.90835616E+02</pdfrwt>
<totfact> 0.82779664E+04</totfact>
</mgrwt>
</event>
<event>
 5      1 +1.6944000e+03 8.97262500e+01 7.81860800e-03 1.30351600e-01
        1 -1    0    0  501    0 +0.0000000000e+00 +0.0000000000e+00 +3.9925632088e+02 3.9925632088e+02 0.0000000000e+00 0.0000e+00 -1.0000e+00
       -1 -1    0    0    0  501 -0.0000000000e+00 -0.0000000000e+00 -5.0411227718e+00 5.0411227718e+00 0.0000000000e+00 0.0000e+00 1.0000e+00
       23  2    1    2    0    0 +0.0000000000e+00 +0.0000000000e+00 +3.9421519811e+02 4.0429744365e+02 8.9726253259e+01 0.0000e+00 0.0000e+00
      -13  1    3    3    0    0 +4.2560859055e+01 -6.5465677240e+00 +2.5382035991e+02 2.5744719726e+02 0.0000000000e+00 0.0000e+00 1.0000e+00
       13  1    3    3    0    0 -4.2560859055e+01 +6.5465677240e+00 +1.4039483820e+02 1.4685024639e+02 0.0000000000e+00 0.0000e+00 -1.0000e+00
<mgrwt>
<rscale>  0 0.89726253E+02</rscale>
<asrwt>0</asrwt>
<pdfrwt beam="1">  1        1 0.61424025E-01 0.89726253E+02</pdfrwt>
<pdfrwt beam="2">  1       -1 0.77555766E-03 0.89726253E+02</pdfrwt>
<totfact> 0.14070989E+05</totfact>
</mgrwt>
</event>
<event>
 5      1 +1.6944000e+03 9.25299800e+01 7.81860800e-03 1.29683800e-01
        2 -1    0    0  501    0 +0.0000000000e+00 +0.0000000000e+00 +9.1498426004e+01 9.1498426004e+01 0.0000000000e+00 0.0000e+00 -1.0000e+00
       -2 -1    0    0    0  501 -0.0000000000e+00 -0.0000000000e+00 -2.3393290875e+01 2.3393290875e+01 0.0000000000e+00 0.0000e+00 1.0000e+00
       23  2    1    2    0    0 +0.0000000000e+00 +0.0000000000e+00 +6.8105135129e+01 1.1489171688e+02 9.2529979879e+01 0.0000e+00 0.0000e+00
      -13  1    3    3    0    0 +1.0964511404e+01 +4.4854206876e+01 +3.7636009060e+01 5.9570039137e+01 0.0000000000e+00 0.0000e+00 1.0000e+00
       13  1    3    3    0    0 -1.0964511404e+01 -4.4854206876e+01 +3.0469126069e+01 5.5321677742e+01 0.0000000000e+00 0.0000e+00 -1.0000e+00
<mgrwt>
<rscale>  0 0.92529980E+02</rscale>
<asrwt>0</asrwt>
<pdfrwt beam="1">  1        2 0.14076681E-01 0.92529980E+02</pdfrwt>
<pdfrwt beam="2">  1       -2 0.35989679E-02 0.92529980E+02</pdfrwt>
<totfact> 0.11466792E+05</totfact>
</mgrwt>
</event>
<event>
 5      1 +1.6944000e+03 8.90905700e+01 7.81860800e-03 1.30506900e-01
        1 -1    0    0  501    0 +0.0000000000e+00 +0.0000000000e+00 +4.0229020531e+02 4.0229020531e+02 0.0000000000e+00 0.0000e+00 -1.0000e+00
       -1 -1    0    0    0  501 -0.0000000000e+00 -0.0000000000e+00 -4.9324654126e+00 4.9324654126e+00 0.0000000000e+00 0.0000e+00 1.0000e+00
       23  2    1    2    0    0 +0.0000000000e+00 +0.0000000000e+00 +3.9735773990e+02 4.0722267072e+02 8.9090572420e+01 0.0000e+00 0.0000e+00
      -13  1    3    3    0    0 -3.0595438132e+01 -3.2155194465e+01 +2.1593064687e+02 2.2044518961e+02 0.0000000000e+00 0.0000e+00 -1.0000e+00
       13  1    3    3    0    0 +3.0595438132e+01 +3.2155194465e+01 +1.8142709303e+02 1.8677748111e+02 0.0000000000e+00 0.0000e+00 1.0000e+00
<mgrwt>
<rscale>  0 0.89090572E+02</rscale>
<asrwt>0</asrwt>
<pdfrwt beam="1">  1        1 0.61890775E-01 0.89090572E+02</pdfrwt>
<pdfrwt beam="2">  1       -1 0.75884115E-03 0.89090572E+02</pdfrwt>
<totfact> 0.14356199E+05</totfact>
</mgrwt>
</event>
<event>
 5      1 +1.6944000e+03 9.01189900e+01 7.81860800e-03 1.30256400e-01
       -2 -1    0    0    0  501 -0.0000000000e+00 +0.0000000000e+00 +1.6096177026e+01 1.6096177026e+01 0.0000000000e+00 0.0000e+00 1.0000e+00
        2 -1    0    0  501    0 +0.0000000000e+00 -0.0000000000e+00 -1.2613916298e+02 1.2613916298e+02 0.0000000000e+00 0.0000e+00 -1.0000e+00
       23  2    1    2    0    0 +0.0000000000e+00 +0.0000000000e+00 -1.1004298596e+02 1.4223534001e+02 9.0118994607e+01 0.0000e+00 0.0000e+00
      -11  1    3    3    0    0 -2.3830972994e+00 -2.0124487602e+01 +8.4979004997e+00 2.1974723364e+01 0.0000000000e+00 0.0000e+00 1.0000e+00
       11  1    3    3    0    0 +2.3830972994e+00 +2.0124487602e+01 -1.1854088645e+02 1.2026061664e+02 0.0000000000e+00 0.0000e+00 -1.0000e+00
<mgrwt>
<rscale>  0 0.90118995E+02</rscale>
<asrwt>0</asrwt>
<pdfrwt beam="2">  1        2 0.19406026E-01 0.90118995E+02</pdfrwt>
<pdfrwt beam="1">  1       -2 0.24763348E-02 0.90118995E+02</pdfrwt>
<totfact> 0.13623879E+05</totfact>
</mgrwt>
</event>
<event>
 5      1 +1.6944000e+03 9.03646400e+01 7.81860800e-03 1.30197100e-01
        1 -1    0    0  501    0 +0.0000000000e+00 +0.0000000000e+00 +2.9098983961e+01 2.9098983961e+01 0.0000000000e+00 0.0000e+00 -1.0000e+00
       -1 -1    0    0    0  501 -0.0000000000e+00 -0.0000000000e+00 -7.0155099653e+01 7.0155099653e+01 0.0000000000e+00 0.0000e+00 1.0000e+00
       23  2    1    2    0    0 +0.0000000000e+00 +0.0000000000e+00 -4.1056115692e+01 9.9254083613e+01 9.0364641748e+01 0.0000e+00 0.0000e+00
      -11  1    3    3    0    0 -2.2689826015e+01 +2.0446911272e+01 +1.6041953352e+01 3.4499980471e+01 0.0000000000e+00 0.0000e+00 -1.0000e+00
       11  1    3    3    0    0 +2.2689826015e+01 -2.0446911272e+01 -5.7098069045e+01 6.4754103142e+01 0.0000000000e+00 0.0000e+00 1.0000e+00
<mgrwt>
<rscale>  0 0.90364642E+02</rscale>
<asrwt>0</asrwt>
<pdfrwt beam="1">  1        1 0.44767668E-02 0.90364642E+02</pdfrwt>
<pdfrwt beam="2">  1       -1 0.10793092E-01 0.90364642E+02</pdfrwt>
<totfact> 0.88502905E+04</totfact>
</mgrwt>
</event>
<event>
 5      1 +1.6944000e+03 9.40906000e+01 7.81860800e-03 1.29323800e-01
       -1 -1    0    0    0  501 -0.0000000000e+00 +0.0000000000e+00 +2.0672026588e+02 2.0672026588e+02 0.0000000000e+00 0.0000e+00 -1.0000e+00
        1 -1    0    0  501    0 +0.0000000000e+00 -0.0000000000e+00 -1.0706546211e+01 1.0706546211e+01 0.0000000000e+00 0.0000e+00 1.0000e+00
       23  2    1    2    0    0 +0.0000000000e+00 +0.0000000000e+00 +1.9601371967e+02 2.1742681209e+02 9.4090596328e+01 0.0000e+00 0.0000e+00
      -11  1    3    3    0    0 +3.3842372461e+01 +7.8400572393e-02 +1.7352336476e+02 1.7679273299e+02 0.0000000000e+00 0.0000e+00 -1.0000e+00
       11  1    3    3    0    0 -3.3842372461e+01 -7.8400572393e-02 +2.2490354910e+01 4.0634079101e+01 0.0000000000e+00 0.0000e+00 1.0000e+00
<mgrwt>
<rscale>  0 0.94090596E+02</rscale>
<asrwt>0</asrwt>
<pdfrwt beam="2">  1        1 0.16471611E-02 0.94090596E+02</pdfrwt>
<pdfrwt beam="1">  1       -1 0.31803115E-01 0.94090596E+02</pdfrwt>
<totfact> 0.63341658E+04</totfact>
</mgrwt>
</event>
<event>
 4      1 +1.6944000e+03 2.33067200e+01 7.81860800e-03 1.68658600e-01
        4 -1    0    0  501    0 +0.0000000000e+00 +0.0000000000e+00 +1.2553853148e+01 1.2553853148e+01 0.0000000000e+00 0.0000e+00 1.0000e+00
       -4 -1    0    0    0  501 -0.0000000000e+00 -0.0000000000e+00 -1.0817463577e+01 1.0817463577e+01 0.0000000000e+00 0.0000e+00 -1.0000e+00
      -13  1    1    2    0    0 +9.6174940520e+00 +5.9547911959e+00 -1.9404816760e+00 1.1476985630e+01 0.0000000000e+00 0.0000e+00 -1.0000e+00
       13  1    1    2    0    0 -9.6174940520e+00 -5.9547911959e+00 +3.6768712466e+00 1.1894331095e+01 0.0000000000e+00 0.0000e+00 1.0000e+00
<mgrwt>
<rscale>  0 0.23306724E+02</rscale>
<asrwt>0</asrwt>
<pdfrwt beam="1">  1        4 0.19313620E-02 0.23306724E+02</pdfrwt>
<pdfrwt beam="2">  1       -4 0.16642252E-02 0.23306724E+02</pdfrwt>
<totfact> 0.93105187E+05</totfact>
</mgrwt>
</event>
<event>
 5      1 +1.6944000e+03 8.79039300e+01 7.81860800e-03 1.30800900e-01
       -2 -1    0    0    0  501 -0.0000000000e+00 +0.0000000000e+00 +1.0163763053e+01 1.0163763053e+01 0.0000000000e+00 0.0000e+00 1.0000e+00
        2 -1    0    0  501    0 +0.0000000000e+00 -0.0000000000e+00 -1.9006495804e+02 1.9006495804e+02 0.0000000000e+00 0.0000e+00 -1.0000e+00
       23  2    1    2    0    0 +0.0000000000e+00 +0.0000000000e+00 -1.7990119498e+02 2.0022872109e+02 8.7903929336e+01 0.0000e+00 0.0000e+00
      -11  1    3    3    0    0 -7.4597928744e+00 -4.2597325648e+01 -7.2073822283e+01 8.4052462906e+01 0.0000000000e+00 0.0000e+00 -1.0000e+00
       11  1    3    3    0    0 +7.4597928744e+00 +4.2597325648e+01 -1.0782737270e+02 1.1617625818e+02 0.0000000000e+00 0.0000e+00 1.0000e+00
<mgrwt>
<rscale>  0 0.87903929E+02</rscale>
<asrwt>0</asrwt>
<pdfrwt beam="2">  1        2 0.29240763E-01 0.87903929E+02</pdfrwt>
<pdfrwt beam="1">  1       -2 0.15636559E-02 0.87903929E+02</pdfrwt>
<totfact> 0.16754851E+05</totfact>
</mgrwt>
</event>
<event>
 4      1 +1.6944000e+03 3.35905900e+01 7.81860800e-03 1.56148500e-01
       -2 -1    0    0    0  501 -0.0000000000e+00 +0.0000000000e+00 +4.5410867118e+00 4.5410867118e+00 0.0000000000e+00 0.0000e+00 -1.0000e+00
        2 -1    0    0  501    0 +0.0000000000e+00 -0.0000000000e+00 -6.2117716878e+01 6.2117716878e+01 0.0000000000e+00 0.0000e+00 1.0000e+00
      -13  1    1    2    0    0 -1.3455563015e+01 -9.0904605040e+00 -3.7299099574e+01 4.0680603207e+01 0.0000000000e+00 0.0000e+00 1.0000e+00
       13  1    1    2    0    0 +1.3455563015e+01 +9.0904605040e+00 -2.0277530592e+01 2.5978200383e+01 0.0000000000e+00 0.0000e+00 -1.0000e+00
<mgrwt>
<rscale>  0 0.33590590E+02</rscale>
<asrwt>0</asrwt>
<pdfrwt beam="2">  1        2 0.95565705E-02 0.33590590E+02</pdfrwt>
<pdfrwt beam="1">  1       -2 0.69862882E-03 0.33590590E+02</pdfrwt>
<totfact> 0.14403565E+06</totfact>
</mgrwt>
</event>
<event>
 5      1 +1.6944000e+03 9.13259700e+01 7.81860800e-03 1.29967200e-01
       -2 -1    0    0    0  501 -0.0000000000e+00 +0.0000000000e+00 +9.6544599316e+01 9.6544599316e+01 0.0000000000e+00 0.0000e+00 1.0000e+00
        2 -1    0    0  501    0 +0.0000000000e+00 -0.0000000000e+00 -2.1597355385e+01 2.1597355385e+01 0.0000000000e+00 0.0000e+00 -1.0000e+00
       23  2    1    2    0    0 +0.0000000000e+00 +0.0000000000e+00 +7.4947243930e+01 1.1814195470e+02 9.1325966121e+01 0.0000e+00 0.0000e+00
      -11  1    3    3    0    0 -3.7830129278e+01 -1.7352316224e+01 +6.1774802730e+01 7.4487232543e+01 0.0000000000e+00 0.0000e+00 1.0000e+00
       11  1    3    3    0    0 +3.7830129278e+01 +1.7352316224e+01 +1.3172441200e+01 4.3654722158e+01 0.0000000000e+00 0.0000e+00 -1.0000e+00
<mgrwt>
<rscale>  0 0.91325966E+02</rscale>
<asrwt>0</asrwt>
<pdfrwt beam="2">  1        2 0.33226701E-02 0.91325966E+02</pdfrwt>
<pdfrwt beam="1">  1       -2 0.14853015E-01 0.91325966E+02</pdfrwt>
<totfact> 0.80315288E+04</totfact>
</mgrwt>
</event>
<event>
 5      1 +1.6944000e+03 9.18813900e+01 7.81860800e-03 1.29835900e-01
        2 -1    0    0  501    0 +0.0000000000e+00 +0.0000000000e+00 +8.0728917237e+01 8.0728917237e+01 0.0000000000e+00 0.0000e+00 -1.0000e+00
       -2 -1    0    0    0  501 -0.0000000000e+00 -0.0000000000e+00 -2.6143636650e+01 2.6143636650e+01 0.0000000000e+00 0.0000e+00 1.0000e+00
       23  2    1    2    0    0 +0.0000000000e+00 +0.0000000000e+00 +5.4585280586e+01 1.0687255389e+02 9.1881390486e+01 0.0000e+00 0.0000e+00
      -11  1    3    3    0    0 -1.0157760648e+01 +4.4758570056e+01 +2.9629917389e+01 5.4630043925e+01 0.0000000000e+00 0.0000e+00 1.0000e+00
       11  1    3    3    0    0 +1.0157760648e+01 -4.4758570056e+01 +2.4955363197e+01 5.2242509962e+01 0.0000000000e+00 0.0000e+00 -1.0000e+00
<mgrwt>
<rscale>  0 0.91881390E+02</rscale>
<asrwt>0</asrwt>
<pdfrwt beam="1">  1        2 0.12419833E-01 0.91881390E+02</pdfrwt>
<pdfrwt beam="2">  1       -2 0.40220980E-02 0.91881390E+02</pdfrwt>
<totfact> 0.11271427E+05</totfact>
</mgrwt>
</event>
<event>
 5      1 +1.6944000e+03 9.03401500e+01 7.81860800e-03 1.30203000e-01
       -1 -1    0    0    0  501 -0.0000000000e+00 +0.0000000000e+00 +9.2455736222e+00 9.2455736222e+00 0.0000000000e+00 0.0000e+00 1.0000e+00
        1 -1    0    0  501    0 +0.0000000000e+00 -0.0000000000e+00 -2.2068243091e+02 2.2068243091e+02 0.0000000000e+00 0.0000e+00 -1.0000e+00
       23  2    1    2    0    0 +0.0000000000e+00 +0.0000000000e+00 -2.1143685729e+02 2.2992800454e+02 9.0340149704e+01 0.0000e+00 0.0000e+00
      -13  1    3    3    0    0 +3.9689426536e+00 +4.4982514606e+01 -1.0845552863e+02 1.1748098066e+02 0.0000000000e+00 0.0000e+00 1.0000e+00
       13  1    3    3    0    0 -3.9689426536e+00 -4.4982514606e+01 -1.0298132866e+02 1.1244702387e+02 0.0000000000e+00 0.0000e+00 -1.0000e+00
<mgrwt>
<rscale>  0 0.90340150E+02</rscale>
<asrwt>0</asrwt>
<pdfrwt beam="2">  1        1 0.33951145E-01 0.90340150E+02</pdfrwt>
<pdfrwt beam="1">  1       -1 0.14223959E-02 0.90340150E+02</pdfrwt>
<totfact> 0.12370917E+05</totfact>
</mgrwt>
</event>
<event>
 4      1 +1.6944000e+03 2.07854200e+01 7.81860800e-03 1.73014600e-01
        2 -1    0    0  501    0 +0.0000000000e+00 +0.0000000000e+00 +4.4928579335e+00 4.4928579335e+00 0.0000000000e+00 0.0000e+00 -1.0000e+00
       -2 -1    0    0    0  501 -0.0000000000e+00 -0.0000000000e+00 -2.4040020748e+01 2.4040020748e+01 0.0000000000e+00 0.0000e+00 1.0000e+00
      -13  1    1    2    0    0 -7.6608357295e+00 -6.5485007600e+00 -6.2907453814e+00 1.1880435334e+01 0.0000000000e+00 0.0000e+00 1.0000e+00
       13  1    1    2    0    0 +7.6608357295e+00 +6.5485007600e+00 -1.3256417433e+01 1.6652443348e+01 0.0000000000e+00 0.0000e+00 -1.0000e+00
<mgrwt>
<rscale>  0 0.20785418E+02</rscale>
<asrwt>0</asrwt>
<pdfrwt beam="1">  1        2 0.69120893E-03 0.20785418E+02</pdfrwt>
<pdfrwt beam="2">  1       -2 0.36984646E-02 0.20785418E+02</pdfrwt>
<totfact> 0.33868554E+06</totfact>
</mgrwt>
</event>
<event>
 5      1 +1.6944000e+03 9.22824400e+01 7.81860800e-03 1.29741700e-01
       -4 -1    0    0    0  501 -0.0000000000e+00 +0.0000000000e+00 +1.1909067294e+02 1.1909067294e+02 0.0000000000e+00 0.0000e+00 1.0000e+00
        4 -1    0    0  501    0 +0.0000000000e+00 -0.0000000000e+00 -1.7877238576e+01 1.7877238576e+01 0.0000000000e+00 0.0000e+00 -1.0000e+00
       23  2    1    2    0    0 +0.0000000000e+00 +0.0000000000e+00 +1.0121343436e+02 1.3696791151e+02 9.2282444100e+01 0.0000e+00 0.0000e+00
      -13  1    3    3    0    0 +2.2034460936e+01 +1.1455531226e+01 +1.0832505258e+02 1.1113533947e+02 0.0000000000e+00 0.0000e+00 1.0000e+00
       13  1    3    3    0    0 -2.2034460936e+01 -1.1455531226e+01 -7.1116182166e+00 2.5832572038e+01 0.0000000000e+00 0.0000e+00 -1.0000e+00
<mgrwt>
<rscale>  0 0.92282444E+02</rscale>
<asrwt>0</asrwt>
<pdfrwt beam="2">  1        4 0.27503445E-02 0.92282444E+02</pdfrwt>
<pdfrwt beam="1">  1       -4 0.18321641E-01 0.92282444E+02</pdfrwt>
<totfact> 0.23564335E+04</totfact>
</mgrwt>
</event>
<event>
 5      1 +1.6944000e+03 9.07530200e+01 7.81860800e-03 1.30103800e-01
       -2 -1    0    0    0  501 -0.0000000000e+00 +0.0000000000e+00 +1.8924869311e+01 1.8924869311e+01 0.0000000000e+00 0.0000e+00 -1.0000e+00
        2 -1    0    0  501    0 +0.0000000000e+00 -0.0000000000e+00 -1.0880008781e+02 1.0880008781e+02 0.0000000000e+00 0.0000e+00 1.0000e+00
       23  2    1    2    0    0 +0.0000000000e+00 +0.0000000000e+00 -8.9875218498e+01 1.2772495712e+02 9.0753015218e+01 0.0000e+00 0.0000e+00
      -13  1    3    3    0    0 +2.3170510130e+01 -3.6157422800e+01 -2.4311017486e+01 4.9348326562e+01 0.0000000000e+00 0.0000e+00 1.0000e+00
       13  1    3    3    0    0 -2.3170510130e+01 +3.6157422800e+01 -6.5564201011e+01 7.8376630557e+01 0.0000000000e+00 0.0000e+00 -1.0000e+00
<mgrwt>
<rscale>  0 0.90753015E+02</rscale>
<asrwt>0</asrwt>
<pdfrwt beam="2">  1        2 0.16738475E-01 0.90753015E+02</pdfrwt>
<pdfrwt beam="1">  1       -2 0.29115184E-02 0.90753015E+02</pdfrwt>
<totfact> 0.12752513E+05</totfact>
</mgrwt>
</event>
<event>
 5      1 +1.6944000e+03 9.44559100e+01 7.81860800e-03 1.29240600e-01
        1 -1    0    0  501    0 +0.0000000000e+00 +0.0000000000e+00 +1.8636355473e+01 1.8636355473e+01 0.0000000000e+00 0.0000e+00 -1.0000e+00
       -1 -1    0    0    0  501 -0.0000000000e+00 -0.0000000000e+00 -1.1968434118e+02 1.1968434118e+02 0.0000000000e+00 0.0000e+00 1.0000e+00
       23  2    1    2    0    0 +0.0000000000e+00 +0.0000000000e+00 -1.0104798570e+02 1.3832069665e+02 9.4455914091e+01 0.0000e+00 0.0000e+00
      -11  1    3    3    0    0 +1.9092928664e+01 -2.8767912504e+01 -9.7711747526e+01 1.0363261224e+02 0.0000000000e+00 0.0000e+00 1.0000e+00
       11  1    3    3    0    0 -1.9092928664e+01 +2.8767912504e+01 -3.3362381757e+00 3.4688084409e+01 0.0000000000e+00 0.0000e+00 -1.0000e+00
<mgrwt>
<rscale>  0 0.94455914E+02</rscale>
<asrwt>0</asrwt>
<pdfrwt beam="1">  1        1 0.28671317E-02 0.94455914E+02</pdfrwt>
<pdfrwt beam="2">  1       -1 0.18412975E-01 0.94455914E+02</pdfrwt>
<totfact> 0.71704216E+04</totfact>
</mgrwt>
</event>
<event>
 5      1 +1.6944000e+03 9.39946800e+01 7.81860800e-03 1.29345700e-01
       -1 -1    0    0    0  501 -0.0000000000e+00 +0.0000000000e+00 +4.5820519364e+01 4.5820519364e+01 0.0000000000e+00 0.0000e+00 1.0000e+00
        1 -1    0    0  501    0 +0.0000000000e+00 -0.0000000000e+00 -4.8204383420e+01 4.8204383420e+01 0.0000000000e+00 0.0000e+00 -1.0000e+00
       23  2    1    2    0    0 +0.0000000000e+00 +0.0000000000e+00 -2.3838640558e+00 9.4024902784e+01 9.3994678231e+01 0.0000e+00 0.0000e+00
      -11  1    3    3    0    0 -3.2150741148e+01 -9.4924728516e+00 -3.4141447318e+01 4.7847838219e+01 0.0000000000e+00 0.0000e+00 -1.0000e+00
       11  1    3    3    0    0 +3.2150741148e+01 +9.4924728516e+00 +3.1757583262e+01 4.6177064566e+01 0.0000000000e+00 0.0000e+00 1.0000e+00
<mgrwt>
<rscale>  0 0.93994678E+02</rscale>
<asrwt>0</asrwt>
<pdfrwt beam="2">  1        1 0.74160590E-02 0.93994678E+02</pdfrwt>
<pdfrwt beam="1">  1       -1 0.70493107E-02 0.93994678E+02</pdfrwt>
<totfact> 0.85608535E+04</totfact>
</mgrwt>
</event>
<event>
 5      1 +1.6944000e+03 9.39985600e+01 7.81860800e-03 1.29344800e-01
        4 -1    0    0  501    0 +0.0000000000e+00 +0.0000000000e+00 +8.5251004407e+00 8.5251004407e+00 0.0000000000e+00 0.0000e+00 -1.0000e+00
       -4 -1    0    0    0  501 -0.0000000000e+00 -0.0000000000e+00 -2.5910922943e+02 2.5910922943e+02 0.0000000000e+00 0.0000e+00 1.0000e+00
       23  2    1    2    0    0 +0.0000000000e+00 +0.0000000000e+00 -2.5058412899e+02 2.6763432987e+02 9.3998557564e+01 0.0000e+00 0.0000e+00
      -13  1    3    3    0    0 +3.5283931981e+01 -5.9717987354e+00 -3.8542346024e+01 5.2594017465e+01 0.0000000000e+00 0.0000e+00 -1.0000e+00
       13  1    3    3    0    0 -3.5283931981e+01 +5.9717987354e+00 -2.1204178297e+02 2.1504031241e+02 0.0000000000e+00 0.0000e+00 1.0000e+00
<mgrwt>
<rscale>  0 0.93998558E+02</rscale>
<asrwt>0</asrwt>
<pdfrwt beam="1">  1        4 0.13115540E-02 0.93998558E+02</pdfrwt>
<pdfrwt beam="2">  1       -4 0.39862956E-01 0.93998558E+02</pdfrwt>
<totfact> 0.17380509E+04</totfact>
</mgrwt>
</event>
<event>
 5      1 +1.6944000e+03 9.17453800e+01 7.81860800e-03 1.29867900e-01
       -2 -1    0    0    0  501 -0.0000000000e+00 +0.0000000000e+00 +7.2816899115e+00 7.2816899115e+00 0.0000000000e+00 0.0000e+00 -1.0000e+00
        2 -1    0    0  501    0 +0.0000000000e+00 -0.0000000000e+00 -2.8898560548e+02 2.8898560548e+02 0.0000000000e+00 0.0000e+00 1.0000e+00
       23  2    1    2    0    0 +0.0000000000e+00 +0.0000000000e+00 -2.8170391556e+02 2.9626729539e+02 9.1745377387e+01 0.0000e+00 0.0000e+00
      -13  1    3    3    0    0 +2.1602301884e+01 -3.9457749124e+01 -1.1183730248e+02 1.2054524312e+02 0.0000000000e+00 0.0000e+00 1.0000e+00
       13  1    3    3    0    0 -2.1602301884e+01 +3.9457749124e+01 -1.6986661308e+02 1.7572205227e+02 0.0000000000e+00 0.0000e+00 -1.0000e+00
<mgrwt>
<rscale>  0 0.91745377E+02</rscale>
<asrwt>0</asrwt>
<pdfrwt beam="2">  1        2 0.44459329E-01 0.91745377E+02</pdfrwt>
<pdfrwt beam="1">  1       -2 0.11202598E-02 0.91745377E+02</pdfrwt>
<totfact> 0.17425352E+05</totfact>
</mgrwt>
</event>
<event>
 4      1 +1.6944000e+03 3.75428300e+01 7.81860800e-03 1.52711300e-01
       -1 -1    0    0    0  501 -0.0000000000e+00 +0.0000000000e+00 +3.5368867952e+01 3.5368867952e+01 0.0000000000e+00 0.0000e+00 1.0000e+00
        1 -1    0    0  501    0 +0.0000000000e+00 -0.0000000000e+00 -9.9626062153e+00 9.9626062153e+00 0.0000000000e+00 0.0000e+00 -1.0000e+00
      -11  1    1    2    0    0 -5.7722348079e-01 -1.2839939665e+01 -3.8160911206e+00 1.3407452740e+01 0.0000000000e+00 0.0000e+00 -1.0000e+00
       11  1    1    2    0    0 +5.7722348079e-01 +1.2839939665e+01 +2.9222352858e+01 3.1924021427e+01 0.0000000000e+00 0.0000e+00 1.0000e+00
<mgrwt>
<rscale>  0 0.37542834E+02</rscale>
<asrwt>0</asrwt>
<pdfrwt beam="2">  1        1 0.15327087E-02 0.37542834E+02</pdfrwt>
<pdfrwt beam="1">  1       -1 0.54413642E-02 0.37542834E+02</pdfrwt>
<totfact> 0.84641301E+05</totfact>
</mgrwt>
</event>
<event>
 4      1 +1.6944000e+03 3.70865000e+01 7.81860800e-03 1.53081600e-01
       -2 -1    0    0    0  501 -0.0000000000e+00 +0.0000000000e+00 +1.3853307500e+01 1.3853307500e+01 0.0000000000e+00 0.0000e+00 1.0000e+00
        2 -1    0    0  501    0 +0.0000000000e+00 -0.0000000000e+00 -2.4820936321e+01 2.4820936321e+01 0.0000000000e+00 0.0000e+00 -1.0000e+00
      -13  1    1    2    0    0 +1.4031049075e+01 -6.2554112707e+00 -1.6313584165e+01 2.2408336319e+01 0.0000000000e+00 0.0000e+00 -1.0000e+00
       13  1    1    2    0    0 -1.4031049075e+01 +6.2554112707e+00 +5.3459553437e+00 1.6265907501e+01 0.0000000000e+00 0.0000e+00 1.0000e+00
<mgrwt>
<rscale>  0 0.37086497E+02</rscale>
<asrwt>0</asrwt>
<pdfrwt beam="2">  1        2 0.38186055E-02 0.37086497E+02</pdfrwt>
<pdfrwt beam="1">  1       -2 0.21312781E-02 0.37086497E+02</pdfrwt>
<totfact> 0.98135475E+05</totfact>
</mgrwt>
</event>
<event>
 5      1 +1.6944000e+03 9.12035700e+01 7.81860800e-03 1.29996300e-01
        3 -1    0    0  501    0 +0.0000000000e+00 +0.0000000000e+00 +9.3143486384e+01 9.3143486384e+01 0.0000000000e+00 0.0000e+00 -1.0000e+00
       -3 -1    0    0    0  501 -0.0000000000e+00 -0.0000000000e+00 -2.2326013252e+01 2.2326013252e+01 0.0000000000e+00 0.0000e+00 1.0000e+00
       23  2    1    2    0    0 +0.0000000000e+00 +0.0000000000e+00 +7.0817473132e+01 1.1546949964e+02 9.1203568162e+01 0.0000e+00 0.0000e+00
      -13  1    3    3    0    0 -1.9545168598e+01 +1.8001233758e+01 +8.2329406241e+01 8.6511208316e+01 0.0000000000e+00 0.0000e+00 -1.0000e+00
       13  1    3    3    0    0 +1.9545168598e+01 -1.8001233758e+01 -1.1511933109e+01 2.8958291321e+01 0.0000000000e+00 0.0000e+00 1.0000e+00
<mgrwt>
<rscale>  0 0.91203568E+02</rscale>
<asrwt>0</asrwt>
<pdfrwt beam="1">  1        3 0.14329767E-01 0.91203568E+02</pdfrwt>
<pdfrwt beam="2">  1       -3 0.34347713E-02 0.91203568E+02</pdfrwt>
<totfact> 0.33532292E+04</totfact>
</mgrwt>
</event>
<event>
 5      1 +1.6944000e+03 8.81927800e+01 7.81860800e-03 1.30728800e-01
       -1 -1    0    0    0  501 -0.0000000000e+00 +0.0000000000e+00 +2.2837844122e+02 2.2837844122e+02 0.0000000000e+00 0.0000e+00 1.0000e+00
        1 -1    0    0  501    0 +0.0000000000e+00 -0.0000000000e+00 -8.5143396009e+00 8.5143396009e+00 0.0000000000e+00 0.0000e+00 -1.0000e+00
       23  2    1    2    0    0 +0.0000000000e+00 +0.0000000000e+00 +2.1986410162e+02 2.3689278082e+02 8.8192779887e+01 0.0000e+00 0.0000e+00
      -11  1    3    3    0    0 -3.7572814606e+01 +8.0735281622e+00 +5.1848526790e+01 6.4538112652e+01 0.0000000000e+00 0.0000e+00 -1.0000e+00
       11  1    3    3    0    0 +3.7572814606e+01 -8.0735281622e+00 +1.6801557483e+02 1.7235466817e+02 0.0000000000e+00 0.0000e+00 1.0000e+00
<mgrwt>
<rscale>  0 0.88192780E+02</rscale>
<asrwt>0</asrwt>
<pdfrwt beam="2">  1        1 0.13098986E-02 0.88192780E+02</pdfrwt>
<pdfrwt beam="1">  1       -1 0.35135140E-01 0.88192780E+02</pdfrwt>
<totfact> 0.72749896E+04</totfact>
</mgrwt>
</event>
<event>
 5      1 +1.6944000e+03 8.91743700e+01 7.81860800e-03 1.30486300e-01
        1 -1    0    0  501    0 +0.0000000000e+00 +0.0000000000e+00 +2.8558239371e+02 2.8558239371e+02 0.0000000000e+00 0.0000e+00 -1.0000e+00
       -1 -1    0    0    0  501 -0.0000000000e+00 -0.0000000000e+00 -6.9612726924e+00 6.9612726924e+00 0.0000000000e+00 0.0000e+00 1.0000e+00
       23  2    1    2    0    0 +0.0000000000e+00 +0.0000000000e+00 +2.7862112102e+02 2.9254366641e+02 8.9174366693e+01 0.0000e+00 0.0000e+00
      -13  1    3    3    0    0 -4.3808937468e+01 -8.2344831209e+00 +1.4257008479e+02 1.4937623235e+02 0.0000000000e+00 0.0000e+00 1.0000e+00
       13  1    3    3    0    0 +4.3808937468e+01 +8.2344831209e+00 +1.3605103624e+02 1.4316743406e+02 0.0000000000e+00 0.0000e+00 -1.0000e+00
<mgrwt>
<rscale>  0 0.89174367E+02</rscale>
<asrwt>0</asrwt>
<pdfrwt beam="1">  1        1 0.43935744E-01 0.89174367E+02</pdfrwt>
<pdfrwt beam="2">  1       -1 0.10709653E-02 0.89174367E+02</pdfrwt>
<totfact> 0.13464516E+05</totfact>
</mgrwt>
</event>
<event>
 4      1 +1.6944000e+03 2.49408800e+01 7.81860800e-03 1.66185300e-01
        2 -1    0    0  501    0 +0.0000000000e+00 +0.0000000000e+00 +4.7631094686e+01 4.7631094686e+01 0.0000000000e+00 0.0000e+00 -1.0000e+00
       -2 -1    0    0    0  501 -0.0000000000e+00 -0.0000000000e+00 -3.2649236174e+00 3.2649236174e+00 0.0000000000e+00 0.0000e+00 1.0000e+00
      -11  1    1    2    0    0 -2.8488418076e-01 -1.2467056080e+01 +2.2299236108e+01 2.5549257862e+01 0.0000000000e+00 0.0000e+00 -1.0000e+00
       11  1    1    2    0    0 +2.8488418076e-01 +1.2467056080e+01 +2.2066934961e+01 2.5346760441e+01 0.0000000000e+00 0.0000e+00 1.0000e+00
<mgrwt>
<rscale>  0 0.24940881E+02</rscale>
<asrwt>0</asrwt>
<pdfrwt beam="1">  1        2 0.73278602E-02 0.24940881E+02</pdfrwt>
<pdfrwt beam="2">  1       -2 0.50229597E-03 0.24940881E+02</pdfrwt>
<totfact> 0.27845695E+06</totfact>
</mgrwt>
</event>
<event>
 5      1 +1.6944000e+03 9.12774400e+01 7.81860800e-03 1.29978700e-01
        2 -1    0    0  501    0 +0.0000000000e+00 +0.0000000000e+00 +3.4095508276e+01 3.4095508276e+01 0.0000000000e+00 0.0000e+00 -1.0000e+00
       -2 -1    0    0    0  501 -0.0000000000e+00 -0.0000000000e+00 -6.1089952577e+01 6.1089952577e+01 0.0000000000e+00 0.0000e+00 1.0000e+00
       23  2    1    2    0    0 +0.0000000000e+00 +0.0000000000e+00 -2.6994444301e+01 9.5185460854e+01 9.1277444831e+01 0.0000e+00 0.0000e+00
      -11  1    3    3    0    0 -1.2317911484e+01 +1.2882455280e+01 +3.0315944324e+01 3.5167386562e+01 0.0000000000e+00 0.0000e+00 -1.0000e+00
       11  1    3    3    0    0 +1.2317911484e+01 -1.2882455280e+01 -5.7310388625e+01 6.0018074292e+01 0.0000000000e+00 0.0000e+00 1.0000e+00
<mgrwt>
<rscale>  0 0.91277445E+02</rscale>
<asrwt>0</asrwt>
<pdfrwt beam="1">  1        2 0.52454628E-02 0.91277445E+02</pdfrwt>
<pdfrwt beam="2">  1       -2 0.93984542E-02 0.91277445E+02</pdfrwt>
<totfact> 0.91212823E+04</totfact>
</mgrwt>
</event>
<event>
 5      1 +1.6944000e+03 9.08384800e+01 7.81860800e-03 1.30083400e-01
        2 -1    0    0  501    0 +0.0000000000e+00 +0.0000000000e+00 +2.3208369762e+01 2.3208369762e+01 0.0000000000e+00 0.0000e+00 -1.0000e+00
       -2 -1    0    0    0  501 -0.0000000000e+00 -0.0000000000e+00 -8.8886359512e+01 8.8886359512e+01 0.0000000000e+00 0.0000e+00 1.0000e+00
       23  2    1    2    0    0 +0.0000000000e+00 +0.0000000000e+00 -6.5677989750e+01 1.1209472927e+02 9.0838482997e+01 0.0000e+00 0.0000e+00
      -11  1    3    3    0    0 -3.9020414239e+01 +5.0821742916e+00 -6.0828950921e+01 7.2447101344e+01 0.0000000000e+00 0.0000e+00 1.0000e+00
       11  1    3    3    0    0 +3.9020414239e+01 -5.0821742916e+00 -4.8490388287e+00 3.9647627930e+01 0.0000000000e+00 0.0000e+00 -1.0000e+00
<mgrwt>
<rscale>  0 0.90838483E+02</rscale>
<asrwt>0</asrwt>
<pdfrwt beam="1">  1        2 0.35705184E-02 0.90838483E+02</pdfrwt>
<pdfrwt beam="2">  1       -2 0.13674825E-01 0.90838483E+02</pdfrwt>
<totfact> 0.83361197E+04</totfact>
</mgrwt>
</event>
<event>
 4      1 +1.6944000e+03 5.59483300e+01 7.81860800e-03 1.41566700e-01
        4 -1    0    0  501    0 +0.0000000000e+00 +0.0000000000e+00 +1.9205884036e+01 1.9205884036e+01 0.0000000000e+00 0.0000e+00 1.0000e+00
       -4 -1    0    0    0  501 -0.0000000000e+00 -0.0000000000e+00 -4.0745529527e+01 4.0745529527e+01 0.0000000000e+00 0.0000e+00 -1.0000e+00
      -11  1    1    2    0    0 -5.5063217645e+00 +2.4882358862e+01 -2.3132299577e+01 3.4417359655e+01 0.0000000000e+00 0.0000e+00 -1.0000e+00
       11  1    1    2    0    0 +5.5063217645e+00 -2.4882358862e+01 +1.5926540860e+00 2.5534053908e+01 0.0000000000e+00 0.0000e+00 1.0000e+00
<mgrwt>
<rscale>  0 0.55948330E+02</rscale>
<asrwt>0</asrwt>
<pdfrwt beam="1">  1        4 0.29547514E-02 0.55948330E+02</pdfrwt>
<pdfrwt beam="2">  1       -4 0.62685429E-02 0.55948330E+02</pdfrwt>
<totfact> 0.10554659E+05</totfact>
</mgrwt>
</event>
<event>
 4      1 +1.6944000e+03 1.90819600e+02 7.81860800e-03 1.15772400e-01
        4 -1    0    0  501    0 +0.0000000000e+00 +0.0000000000e+00 +1.4729179886e+02 1.4729179886e+02 0.0000000000e+00 0.0000e+00 -1.0000e+00
       -4 -1    0    0    0  501 -0.0000000000e+00 -0.0000000000e+00 -6.1802681361e+01 6.1802681361e+01 0.0000000000e+00 0.0000e+00 1.0000e+00
      -13  1    1    2    0    0 -5.0958989380e+01 +3.5774864670e+00 -4.5554501256e+01 6.8445815013e+01 0.0000000000e+00 0.0000e+00 1.0000e+00
       13  1    1    2    0    0 +5.0958989380e+01 -3.5774864670e+00 +1.3104361875e+02 1.4064866520e+02 0.0000000000e+00 0.0000e+00 -1.0000e+00
<mgrwt>
<rscale>  0 0.19081958E+03</rscale>
<asrwt>0</asrwt>
<pdfrwt beam="1">  1        4 0.22660277E-01 0.19081958E+03</pdfrwt>
<pdfrwt beam="2">  1       -4 0.95081048E-02 0.19081958E+03</pdfrwt>
<totfact> 0.26216381E+03</totfact>
</mgrwt>
</event>
<event>
 4      1 +1.6944000e+03 3.31918100e+01 7.81860800e-03 1.56527000e-01
       -2 -1    0    0    0  501 -0.0000000000e+00 +0.0000000000e+00 +2.0717141413e+01 2.0717141413e+01 0.0000000000e+00 0.0000e+00 -1.0000e+00
        2 -1    0    0  501    0 +0.0000000000e+00 -0.0000000000e+00 -1.3294503972e+01 1.3294503972e+01 0.0000000000e+00 0.0000e+00 1.0000e+00
      -11  1    1    2    0    0 -4.3717777121e+00 +1.5876373388e+01 +1.5982379886e+00 1.6544667933e+01 0.0000000000e+00 0.0000e+00 -1.0000e+00
       11  1    1    2    0    0 +4.3717777121e+00 -1.5876373388e+01 +5.8243994521e+00 1.7466977452e+01 0.0000000000e+00 0.0000e+00 1.0000e+00
<mgrwt>
<rscale>  0 0.33191813E+02</rscale>
<asrwt>0</asrwt>
<pdfrwt beam="2">  1        2 0.20453083E-02 0.33191813E+02</pdfrwt>
<pdfrwt beam="1">  1       -2 0.31872525E-02 0.33191813E+02</pdfrwt>
<totfact> 0.12032857E+06</totfact>
</mgrwt>
</event>
<event>
 4      1 +1.6944000e+03 2.13582400e+01 7.81860800e-03 1.71959300e-01
       -2 -1    0    0    0  501 -0.0000000000e+00 +0.0000000000e+00 +3.8310856465e+01 3.8310856465e+01 0.0000000000e+00 0.0000e+00 1.0000e+00
        2 -1    0    0  501    0 +0.0000000000e+00 -0.0000000000e+00 -2.9767963111e+00 2.9767963111e+00 0.0000000000e+00 0.0000e+00 -1.0000e+00
      -13  1    1    2    0    0 -6.2375519198e-01 +1.0161660855e+01 +2.3899655323e+01 2.5977720193e+01 0.0000000000e+00 0.0000e+00 1.0000e+00
       13  1    1    2    0    0 +6.2375519198e-01 -1.0161660855e+01 +1.1434404831e+01 1.5309932583e+01 0.0000000000e+00 0.0000e+00 -1.0000e+00
<mgrwt>
<rscale>  0 0.21358241E+02</rscale>
<asrwt>0</asrwt>
<pdfrwt beam="2">  1        2 0.45796869E-03 0.21358241E+02</pdfrwt>
<pdfrwt beam="1">  1       -2 0.58939776E-02 0.21358241E+02</pdfrwt>
<totfact> 0.30385842E+06</totfact>
</mgrwt>
</event>
<event>
 5      1 +1.6944000e+03 9.13390800e+01 7.81860800e-03 1.29964100e-01
       -3 -1    0    0    0  501 -0.0000000000e+00 +0.0000000000e+00 +3.6172240490e+02 3.6172240490e+02 0.0000000000e+00 0.0000e+00 1.0000e+00
        3 -1    0    0  501    0 +0.0000000000e+00 -0.0000000000e+00 -5.7660429452e+00 5.7660429452e+00 0.0000000000e+00 0.0000e+00 -1.0000e+00
       23  2    1    2    0    0 +0.0000000000e+00 +0.0000000000e+00 +3.5595636196e+02 3.6748844785e+02 9.1339080812e+01 0.0000e+00 0.0000e+00
      -13  1    3    3    0    0 -3.7248331736e+01 -2.6262413930e+01 +1.6621080149e+02 1.7234611436e+02 0.0000000000e+00 0.0000e+00 -1.0000e+00
       13  1    3    3    0    0 +3.7248331736e+01 +2.6262413930e+01 +1.8974556047e+02 1.9514233349e+02 0.0000000000e+00 0.0000e+00 1.0000e+00
<mgrwt>
<rscale>  0 0.91339081E+02</rscale>
<asrwt>0</asrwt>
<pdfrwt beam="2">  1        3 0.88708381E-03 0.91339081E+02</pdfrwt>
<pdfrwt beam="1">  1       -3 0.55649583E-01 0.91339081E+02</pdfrwt>
<totfact> 0.21519531E+04</totfact>
</mgrwt>
</event>
<event>
 5      1 +1.6944000e+03 9.10115800e+01 7.81860800e-03 1.30042000e-01
       -4 -1    0    0    0  501 -0.0000000000e+00 +0.0000000000e+00 +2.5704632855e+01 2.5704632855e+01 0.0000000000e+00 0.0000e+00 1.0000e+00
        4 -1    0    0  501    0 +0.0000000000e+00 -0.0000000000e+00 -8.0560462998e+01 8.0560462998e+01 0.0000000000e+00 0.0000e+00 -1.0000e+00
       23  2    1    2    0    0 +0.0000000000e+00 +0.0000000000e+00 -5.4855830143e+01 1.0626509585e+02 9.1011584405e+01 0.0000e+00 0.0000e+00
      -11  1    3    3    0    0 +3.1275278914e+01 +3.2864805625e+01 -3.1562372814e+01 5.5266824566e+01 0.0000000000e+00 0.0000e+00 1.0000e+00
       11  1    3    3    0    0 -3.1275278914e+01 -3.2864805625e+01 -2.3293457329e+01 5.0998271287e+01 0.0000000000e+00 0.0000e+00 -1.0000e+00
<mgrwt>
<rscale>  0 0.91011584E+02</rscale>
<asrwt>0</asrwt>
<pdfrwt beam="2">  1        4 0.12393917E-01 0.91011584E+02</pdfrwt>
<pdfrwt beam="1">  1       -4 0.39545589E-02 0.91011584E+02</pdfrwt>
<totfact> 0.26204413E+04</totfact>
</mgrwt>
</event>
<event>
 4      1 +1.6944000e+03 6.21467200e+01 7.81860800e-03 1.38903800e-01
       -4 -1    0    0    0  501 -0.0000000000e+00 +0.0000000000e+00 +1.8539126056e+01 1.8539126056e+01 0.0000000000e+00 0.0000e+00 1.0000e+00
        4 -1    0    0  501    0 +0.0000000000e+00 -0.0000000000e+00 -5.2081947809e+01 5.2081947809e+01 0.0000000000e+00 0.0000e+00 -1.0000e+00
      -11  1    1    2    0    0 -7.7186053389e+00 -2.8682412228e+01 -2.7142600235e+01 4.0236530506e+01 0.0000000000e+00 0.0000e+00 -1.0000e+00
       11  1    1    2    0    0 +7.7186053389e+00 +2.8682412228e+01 -6.4002215179e+00 3.0384543358e+01 0.0000000000e+00 0.0000e+00 1.0000e+00
<mgrwt>
<rscale>  0 0.62146723E+02</rscale>
<asrwt>0</asrwt>
<pdfrwt beam="2">  1        4 0.80126072E-02 0.62146723E+02</pdfrwt>
<pdfrwt beam="1">  1       -4 0.28521733E-02 0.62146723E+02</pdfrwt>
<totfact> 0.78376091E+04</totfact>
</mgrwt>
</event>
<event>
 5      1 +1.6944000e+03 8.69729500e+01 7.81860800e-03 1.31035200e-01
       -1 -1    0    0    0  501 -0.0000000000e+00 +0.0000000000e+00 +7.7076951160e+01 7.7076951160e+01 0.0000000000e+00 0.0000e+00 1.0000e+00
        1 -1    0    0  501    0 +0.0000000000e+00 -0.0000000000e+00 -2.4534879289e+01 2.4534879289e+01 0.0000000000e+00 0.0000e+00 -1.0000e+00
       23  2    1    2    0    0 +0.0000000000e+00 +0.0000000000e+00 +5.2542071870e+01 1.0161183045e+02 8.6972954249e+01 0.0000e+00 0.0000e+00
      -13  1    3    3    0    0 +2.1045585322e+01 -4.7699840434e+00 +7.0380225911e+01 7.3614167173e+01 0.0000000000e+00 0.0000e+00 1.0000e+00
       13  1    3    3    0    0 -2.1045585322e+01 +4.7699840434e+00 -1.7838154041e+01 2.7997663276e+01 0.0000000000e+00 0.0000e+00 -1.0000e+00
<mgrwt>
<rscale>  0 0.86972954E+02</rscale>
<asrwt>0</asrwt>
<pdfrwt beam="2">  1        1 0.37745969E-02 0.86972954E+02</pdfrwt>
<pdfrwt beam="1">  1       -1 0.11857992E-01 0.86972954E+02</pdfrwt>
<totfact> 0.96092953E+04</totfact>
</mgrwt>
</event>
<event>
 4      1 +1.6944000e+03 4.36958000e+01 7.81860800e-03 1.48265200e-01
        2 -1    0    0  501    0 +0.0000000000e+00 +0.0000000000e+00 +7.7603900488e+00 7.7603900488e+00 0.0000000000e+00 0.0000e+00 -1.0000e+00
       -2 -1    0    0    0  501 -0.0000000000e+00 -0.0000000000e+00 -6.1508598778e+01 6.1508598778e+01 0.0000000000e+00 0.0000e+00 1.0000e+00
      -11  1    1    2    0    0 -1.2837418490e+01 -1.5283579262e+01 -4.0959130260e+01 4.5563554078e+01 0.0000000000e+00 0.0000e+00 -1.0000e+00
       11  1    1    2    0    0 +1.2837418490e+01 +1.5283579262e+01 -1.2789078469e+01 2.3705434749e+01 0.0000000000e+00 0.0000e+00 1.0000e+00
<mgrwt>
<rscale>  0 0.43695799E+02</rscale>
<asrwt>0</asrwt>
<pdfrwt beam="1">  1        2 0.11939062E-02 0.43695799E+02</pdfrwt>
<pdfrwt beam="2">  1       -2 0.94628612E-02 0.43695799E+02</pdfrwt>
<totfact> 0.54290957E+05</totfact>
</mgrwt>
</event>
<event>
 4      1 +1.6944000e+03 7.20982500e+01 7.81860800e-03 1.35310000e-01
       -1 -1    0    0    0  501 -0.0000000000e+00 +0.0000000000e+00 +5.8782614237e+00 5.8782614237e+00 0.0000000000e+00 0.0000e+00 -1.0000e+00
        1 -1    0    0  501    0 +0.0000000000e+00 -0.0000000000e+00 -2.2107548142e+02 2.2107548142e+02 0.0000000000e+00 0.0000e+00 1.0000e+00
      -13  1    1    2    0    0 -3.2942825777e+01 -2.3284124801e+00 -1.5309422800e+02 1.5661575247e+02 0.0000000000e+00 0.0000e+00 1.0000e+00
       13  1    1    2    0    0 +3.2942825777e+01 +2.3284124801e+00 -6.2102991994e+01 7.0337990371e+01 0.0000000000e+00 0.0000e+00 -1.0000e+00
<mgrwt>
<rscale>  0 0.72098252E+02</rscale>
<asrwt>0</asrwt>
<pdfrwt beam="2">  1        1 0.34011617E-01 0.72098252E+02</pdfrwt>
<pdfrwt beam="1">  1       -1 0.90434780E-03 0.72098252E+02</pdfrwt>
<totfact> 0.22450961E+05</totfact>
</mgrwt>
</event>
<event>
 5      1 +1.6944000e+03 9.18598300e+01 7.81860800e-03 1.29840900e-01
       -2 -1    0    0    0  501 -0.0000000000e+00 +0.0000000000e+00 +4.5340318455e+00 4.5340318455e+00 0.0000000000e+00 0.0000e+00 -1.0000e+00
        2 -1    0    0  501    0 +0.0000000000e+00 -0.0000000000e+00 -4.6527175618e+02 4.6527175618e+02 0.0000000000e+00 0.0000e+00 1.0000e+00
       23  2    1    2    0    0 +0.0000000000e+00 +0.0000000000e+00 -4.6073772433e+02 4.6980578802e+02 9.1859827113e+01 0.0000e+00 0.0000e+00
      -11  1    3    3    0    0 -3.0001574760e+00 +4.5683168600e+01 -2.4923261007e+02 2.5340253898e+02 0.0000000000e+00 0.0000e+00 1.0000e+00
       11  1    3    3    0    0 +3.0001574760e+00 -4.5683168600e+01 -2.1150511426e+02 2.1640324904e+02 0.0000000000e+00 0.0000e+00 -1.0000e+00
<mgrwt>
<rscale>  0 0.91859827E+02</rscale>
<asrwt>0</asrwt>
<pdfrwt beam="2">  1        2 0.71580250E-01 0.91859827E+02</pdfrwt>
<pdfrwt beam="1">  1       -2 0.69754356E-03 0.91859827E+02</pdfrwt>
<totfact> 0.20629307E+05</totfact>
</mgrwt>
</event>
<event>
 5      1 +1.6944000e+03 9.09500700e+01 7.81860800e-03 1.30056700e-01
        1 -1    0    0  501    0 +0.0000000000e+00 +0.0000000000e+00 +2.0063233907e+02 2.0063233907e+02 0.0000000000e+00 0.0000e+00 -1.0000e+00
       -1 -1    0    0    0  501 -0.0000000000e+00 -0.0000000000e+00 -1.0307306554e+01 1.0307306554e+01 0.0000000000e+00 0.0000e+00 1.0000e+00
       23  2    1    2    0    0 +0.0000000000e+00 +0.0000000000e+00 +1.9032503251e+02 2.1093964562e+02 9.0950074731e+01 0.0000e+00 0.0000e+00
      -13  1    3    3    0    0 +4.1725777876e+01 +8.0583932242e+00 +5.7621463595e+01 7.1597564955e+01 0.0000000000e+00 0.0000e+00 1.0000e+00
       13  1    3    3    0    0 -4.1725777876e+01 -8.0583932242e+00 +1.3270356892e+02 1.3934208066e+02 0.0000000000e+00 0.0000e+00 -1.0000e+00
<mgrwt>
<rscale>  0 0.90950075E+02</rscale>
<asrwt>0</asrwt>
<pdfrwt beam="1">  1        1 0.30866511E-01 0.90950075E+02</pdfrwt>
<pdfrwt beam="2">  1       -1 0.15857396E-02 0.90950075E+02</pdfrwt>
<totfact> 0.11927246E+05</totfact>
</mgrwt>
</event>
<event>
 5      1 +1.6944000e+03 9.11045500e+01 7.81860800e-03 1.30019900e-01
        2 -1    0    0  501    0 +0.0000000000e+00 +0.0000000000e+00 +1.5135704841e+02 1.5135704841e+02 0.0000000000e+00 0.0000e+00 -1.0000e+00
       -2 -1    0    0    0  501 -0.0000000000e+00 -0.0000000000e+00 -1.3709371194e+01 1.3709371194e+01 0.0000000000e+00 0.0000e+00 1.0000e+00
       23  2    1    2    0    0 +0.0000000000e+00 +0.0000000000e+00 +1.3764767721e+02 1.6506641960e+02 9.1104554428e+01 0.0000e+00 0.0000e+00
      -11  1    3    3    0    0 +3.5778143217e+01 -2.4614913128e-01 +1.7741856059e+01 3.9936319033e+01 0.0000000000e+00 0.0000e+00 -1.0000e+00
       11  1    3    3    0    0 -3.5778143217e+01 +2.4614913128e-01 +1.1990582115e+02 1.2513010057e+02 0.0000000000e+00 0.0000e+00 1.0000e+00
<mgrwt>
<rscale>  0 0.91104554E+02</rscale>
<asrwt>0</asrwt>
<pdfrwt beam="1">  1        2 0.23285698E-01 0.91104554E+02</pdfrwt>
<pdfrwt beam="2">  1       -2 0.21091341E-02 0.91104554E+02</pdfrwt>
<totfact> 0.14054146E+05</totfact>
</mgrwt>
</event>
<event>
 5      1 +1.6944000e+03 9.18991200e+01 7.81860800e-03 1.29831700e-01
       -1 -1    0    0    0  501 -0.0000000000e+00 +0.0000000000e+00 +6.2582189772e+00 6.2582189772e+00 0.0000000000e+00 0.0000e+00 1.0000e+00
        1 -1    0    0  501    0 +0.0000000000e+00 -0.0000000000e+00 -3.3737425736e+02 3.3737425736e+02 0.0000000000e+00 0.0000e+00 -1.0000e+00
       23  2    1    2    0    0 +0.0000000000e+00 +0.0000000000e+00 -3.3111603838e+02 3.4363247634e+02 9.1899118164e+01 0.0000e+00 0.0000e+00
      -13  1    3    3    0    0 +1.7551530735e+01 +4.2106899543e+01 -1.8614581830e+02 1.9165414916e+02 0.0000000000e+00 0.0000e+00 1.0000e+00
       13  1    3    3    0    0 -1.7551530735e+01 -4.2106899543e+01 -1.4497022008e+02 1.5197832718e+02 0.0000000000e+00 0.0000e+00 -1.0000e+00
<mgrwt>
<rscale>  0 0.91899118E+02</rscale>
<asrwt>0</asrwt>
<pdfrwt beam="2">  1        1 0.51903734E-01 0.91899118E+02</pdfrwt>
<pdfrwt beam="1">  1       -1 0.96280287E-03 0.91899118E+02</pdfrwt>
<totfact> 0.12823867E+05</totfact>
</mgrwt>
</event>
<event>
 5      1 +1.6944000e+03 8.99569700e+01 7.81860800e-03 1.30295600e-01
       -1 -1    0    0    0  501 -0.0000000000e+00 +0.0000000000e+00 +1.6674394871e+01 1.6674394871e+01 0.0000000000e+00 0.0000e+00 1.0000e+00
        1 -1    0    0  501    0 +0.0000000000e+00 -0.0000000000e+00 -1.2132758006e+02 1.2132758006e+02 0.0000000000e+00 0.0000e+00 -1.0000e+00
       23  2    1    2    0    0 +0.0000000000e+00 +0.0000000000e+00 -1.0465318518e+02 1.3800197493e+02 8.9956967015e+01 0.0000e+00 0.0000e+00
      -11  1    3    3    0    0 -7.1400742824e+00 -2.3689621120e+01 +5.2964692831e+00 2.5302794242e+01 0.0000000000e+00 0.0000e+00 1.0000e+00
       11  1    3    3    0    0 +7.1400742824e+00 +2.3689621120e+01 -1.0994965447e+02 1.1269918068e+02 0.0000000000e+00 0.0000e+00 -1.0000e+00
<mgrwt>
<rscale>  0 0.89956967E+02</rscale>
<asrwt>0</asrwt>
<pdfrwt beam="2">  1        1 0.18665782E-01 0.89956967E+02</pdfrwt>
<pdfrwt beam="1">  1       -1 0.25652915E-02 0.89956967E+02</pdfrwt>
<totfact> 0.11195406E+05</totfact>
</mgrwt>
</event>
<event>
 5      1 +1.6944000e+03 8.93412700e+01 7.81860800e-03 1.30445500e-01
        2 -1    0    0  501    0 +0.0000000000e+00 +0.0000000000e+00 +2.6786491655e+01 2.6786491655e+01 0.0000000000e+00 0.0000e+00 -1.0000e+00
       -2 -1    0    0    0  501 -0.0000000000e+00 -0.0000000000e+00 -7.4495214966e+01 7.4495214966e+01 0.0000000000e+00 0.0000e+00 1.0000e+00
       23  2    1    2    0    0 +0.0000000000e+00 +0.0000000000e+00 -4.7708723311e+01 1.0128170662e+02 8.9341266031e+01 0.0000e+00 0.0000e+00
      -11  1    3    3    0    0 -2.2775973899e+01 +3.6813090236e+01 -1.1357609192e+01 4.4754261097e+01 0.0000000000e+00 0.0000e+00 -1.0000e+00
       11  1    3    3    0    0 +2.2775973899e+01 -3.6813090236e+01 -3.6351114119e+01 5.6527445524e+01 0.0000000000e+00 0.0000e+00 1.0000e+00
<mgrwt>
<rscale>  0 0.89341266E+02</rscale>
<asrwt>0</asrwt>
<pdfrwt beam="1">  1        2 0.41209988E-02 0.89341266E+02</pdfrwt>
<pdfrwt beam="2">  1       -2 0.11460802E-01 0.89341266E+02</pdfrwt>
<totfact> 0.91176828E+04</totfact>
</mgrwt>
</event>
<event>
 5      1 +1.6944000e+03 8.72486100e+01 7.81860800e-03 1.30965500e-01
        2 -1    0    0  501    0 +0.0000000000e+00 +0.0000000000e+00 +1.2582503646e+01 1.2582503646e+01 0.0000000000e+00 0.0000e+00 -1.0000e+00
       -2 -1    0    0    0  501 -0.0000000000e+00 -0.0000000000e+00 -1.5124810431e+02 1.5124810431e+02 0.0000000000e+00 0.0000e+00 1.0000e+00
       23  2    1    2    0    0 +0.0000000000e+00 +0.0000000000e+00 -1.3866560066e+02 1.6383060796e+02 8.7248606269e+01 0.0000e+00 0.0000e+00
      -11  1    3    3    0    0 +2.8070167377e+01 +5.6383189095e-01 -1.3202888278e+02 1.3498102863e+02 0.0000000000e+00 0.0000e+00 1.0000e+00
       11  1    3    3    0    0 -2.8070167377e+01 -5.6383189095e-01 -6.6367178871e+00 2.8849579326e+01 0.0000000000e+00 0.0000e+00 -1.0000e+00
<mgrwt>
<rscale>  0 0.87248606E+02</rscale>
<asrwt>0</asrwt>
<pdfrwt beam="1">  1        2 0.19357698E-02 0.87248606E+02</pdfrwt>
<pdfrwt beam="2">  1       -2 0.23268939E-01 0.87248606E+02</pdfrwt>
<totfact> 0.77852510E+04</totfact>
</mgrwt>
</event>
<event>
 5      1 +1.6944000e+03 9.21611500e+01 7.81860800e-03 1.29770100e-01
        3 -1    0    0  501    0 +0.0000000000e+00 +0.0000000000e+00 +1.1856940675e+02 1.1856940675e+02 0.0000000000e+00 0.0000e+00 -1.0000e+00
       -3 -1    0    0    0  501 -0.0000000000e+00 -0.0000000000e+00 -1.7908662517e+01 1.7908662517e+01 0.0000000000e+00 0.0000e+00 1.0000e+00
       23  2    1    2    0    0 +0.0000000000e+00 +0.0000000000e+00 +1.0066074424e+02 1.3647806927e+02 9.2161152128e+01 0.0000e+00 0.0000e+00
      -13  1    3    3    0    0 -2.7878238206e+01 -1.7483814266e+01 +9.8099165739e+01 1.0347137887e+02 0.0000000000e+00 0.0000e+00 -1.0000e+00
       13  1    3    3    0    0 +2.7878238206e+01 +1.7483814266e+01 +2.5615784979e+00 3.3006690400e+01 0.0000000000e+00 0.0000e+00 1.0000e+00
<mgrwt>
<rscale>  0 0.92161152E+02</rscale>
<asrwt>0</asrwt>
<pdfrwt beam="1">  1        3 0.18241447E-01 0.92161152E+02</pdfrwt>
<pdfrwt beam="2">  1       -3 0.27551789E-02 0.92161152E+02</pdfrwt>
<totfact> 0.31230270E+04</totfact>
</mgrwt>
</event>
<event>
 5      1 +1.6944000e+03 9.14566000e+01 7.81860800e-03 1.29936200e-01
       -1 -1    0    0    0  501 -0.0000000000e+00 +0.0000000000e+00 +3.3719499798e+02 3.3719499798e+02 0.0000000000e+00 0.0000e+00 1.0000e+00
        1 -1    0    0  501    0 +0.0000000000e+00 -0.0000000000e+00 -6.2013891863e+00 6.2013891863e+00 0.0000000000e+00 0.0000e+00 -1.0000e+00
       23  2    1    2    0    0 +0.0000000000e+00 +0.0000000000e+00 +3.3099360879e+02 3.4339638716e+02 9.1456599852e+01 0.0000e+00 0.0000e+00
      -11  1    3    3    0    0 +1.9437670526e+01 -4.1390540232e+01 +1.6654247267e+02 1.7270609444e+02 0.0000000000e+00 0.0000e+00 1.0000e+00
       11  1    3    3    0    0 -1.9437670526e+01 +4.1390540232e+01 +1.6445113613e+02 1.7069029272e+02 0.0000000000e+00 0.0000e+00 -1.0000e+00
<mgrwt>
<rscale>  0 0.91456600E+02</rscale>
<asrwt>0</asrwt>
<pdfrwt beam="2">  1        1 0.95406014E-03 0.91456600E+02</pdfrwt>
<pdfrwt beam="1">  1       -1 0.51876139E-01 0.91456600E+02</pdfrwt>
<totfact> 0.57266952E+04</totfact>
</mgrwt>
</event>
<event>
 5      1 +1.6944000e+03 6.13736000e+01 7.81860800e-03 1.39215600e-01
        2 -1    0    0  501    0 +0.0000000000e+00 +0.0000000000e+00 +3.1566590095e+02 3.1566590095e+02 0.0000000000e+00 0.0000e+00 1.0000e+00
       -2 -1    0    0    0  501 -0.0000000000e+00 -0.0000000000e+00 -2.9831529304e+00 2.9831529304e+00 0.0000000000e+00 0.0000e+00 -1.0000e+00
       23  2    1    2    0    0 +0.0000000000e+00 +0.0000000000e+00 +3.1268274802e+02 3.1864905388e+02 6.1373598801e+01 0.0000e+00 0.0000e+00
      -11  1    3    3    0    0 +3.0322062115e+01 +4.7121916156e+00 +1.5747241909e+02 1.6043439461e+02 0.0000000000e+00 0.0000e+00 1.0000e+00
       11  1    3    3    0    0 -3.0322062115e+01 -4.7121916156e+00 +1.5521032893e+02 1.5821465926e+02 0.0000000000e+00 0.0000e+00 -1.0000e+00
<mgrwt>
<rscale>  0 0.61373599E+02</rscale>
<asrwt>0</asrwt>
<pdfrwt beam="1">  1        2 0.48563958E-01 0.61373599E+02</pdfrwt>
<pdfrwt beam="2">  1       -2 0.45894685E-03 0.61373599E+02</pdfrwt>
<totfact> 0.51386946E+05</totfact>
</mgrwt>
</event>
<event>
 4      1 +1.6944000e+03 5.33295900e+01 7.81860800e-03 1.42816800e-01
       -2 -1    0    0    0  501 -0.0000000000e+00 +0.0000000000e+00 +7.3982981988e+01 7.3982981988e+01 0.0000000000e+00 0.0000e+00 -1.0000e+00
        2 -1    0    0  501    0 +0.0000000000e+00 -0.0000000000e+00 -9.6104725045e+00 9.6104725045e+00 0.0000000000e+00 0.0000e+00 1.0000e+00
      -11  1    1    2    0    0 +8.2783509054e-01 +2.3346781896e+01 +1.2036033395e+01 2.6279719095e+01 0.0000000000e+00 0.0000e+00 1.0000e+00
       11  1    1    2    0    0 -8.2783509054e-01 -2.3346781896e+01 +5.2336476088e+01 5.7313735397e+01 0.0000000000e+00 0.0000e+00 -1.0000e+00
<mgrwt>
<rscale>  0 0.53329595E+02</rscale>
<asrwt>0</asrwt>
<pdfrwt beam="2">  1        2 0.14785343E-02 0.53329595E+02</pdfrwt>
<pdfrwt beam="1">  1       -2 0.11381997E-01 0.53329595E+02</pdfrwt>
<totfact> 0.32347143E+05</totfact>
</mgrwt>
</event>
<event>
 4      1 +1.6944000e+03 2.35051000e+01 7.81860800e-03 1.68345100e-01
        2 -1    0    0  501    0 +0.0000000000e+00 +0.0000000000e+00 +1.2318322872e+01 1.2318322872e+01 0.0000000000e+00 0.0000e+00 1.0000e+00
       -2 -1    0    0    0  501 -0.0000000000e+00 -0.0000000000e+00 -1.1212766354e+01 1.1212766354e+01 0.0000000000e+00 0.0000e+00 -1.0000e+00
      -11  1    1    2    0    0 -9.1819037494e+00 -4.1096460315e+00 +6.6361670589e+00 1.2051359268e+01 0.0000000000e+00 0.0000e+00 1.0000e+00
       11  1    1    2    0    0 +9.1819037494e+00 +4.1096460315e+00 -5.5306105403e+00 1.1479729958e+01 0.0000000000e+00 0.0000e+00 -1.0000e+00
<mgrwt>
<rscale>  0 0.23505104E+02</rscale>
<asrwt>0</asrwt>
<pdfrwt beam="1">  1        2 0.18951266E-02 0.23505104E+02</pdfrwt>
<pdfrwt beam="2">  1       -2 0.17250410E-02 0.23505104E+02</pdfrwt>
<totfact> 0.27589111E+06</totfact>
</mgrwt>
</event>
<event>
 4      1 +1.6944000e+03 3.78628700e+01 7.81860800e-03 1.52455400e-01
        2 -1    0    0  501    0 +0.0000000000e+00 +0.0000000000e+00 +4.0756798337e+01 4.0756798337e+01 0.0000000000e+00 0.0000e+00 -1.0000e+00
       -2 -1    0    0    0  501 -0.0000000000e+00 -0.0000000000e+00 -8.7936057744e+00 8.7936057744e+00 0.0000000000e+00 0.0000e+00 1.0000e+00
      -11  1    1    2    0    0 -1.6796732527e+01 -8.6671462742e+00 +1.4578455602e+01 2.3870086214e+01 0.0000000000e+00 0.0000e+00 1.0000e+00
       11  1    1    2    0    0 +1.6796732527e+01 +8.6671462742e+00 +1.7384736960e+01 2.5680317897e+01 0.0000000000e+00 0.0000e+00 -1.0000e+00
<mgrwt>
<rscale>  0 0.37862869E+02</rscale>
<asrwt>0</asrwt>
<pdfrwt beam="1">  1        2 0.62702766E-02 0.37862869E+02</pdfrwt>
<pdfrwt beam="2">  1       -2 0.13528624E-02 0.37862869E+02</pdfrwt>
<totfact> 0.99953665E+05</totfact>
</mgrwt>
</event>
<event>
 5      1 +1.6944000e+03 9.15662400e+01 7.81860800e-03 1.29910300e-01
       -2 -1    0    0    0  501 -0.0000000000e+00 +0.0000000000e+00 +3.3640648849e+01 3.3640648849e+01 0.0000000000e+00 0.0000e+00 1.0000e+00
        2 -1    0    0  501    0 +0.0000000000e+00 -0.0000000000e+00 -6.2308371943e+01 6.2308371943e+01 0.0000000000e+00 0.0000e+00 -1.0000e+00
       23  2    1    2    0    0 +0.0000000000e+00 +0.0000000000e+00 -2.8667723094e+01 9.5949020792e+01 9.1566239650e+01 0.0000e+00 0.0000e+00
      -11  1    3    3    0    0 +2.9294989418e+01 -3.1436507162e+01 +2.2225208899e+00 4.3027781568e+01 0.0000000000e+00 0.0000e+00 1.0000e+00
       11  1    3    3    0    0 -2.9294989418e+01 +3.1436507162e+01 -3.0890243984e+01 5.2921239224e+01 0.0000000000e+00 0.0000e+00 -1.0000e+00
<mgrwt>
<rscale>  0 0.91566240E+02</rscale>
<asrwt>0</asrwt>
<pdfrwt beam="2">  1        2 0.95859032E-02 0.91566240E+02</pdfrwt>
<pdfrwt beam="1">  1       -2 0.51754845E-02 0.91566240E+02</pdfrwt>
<totfact> 0.10587356E+05</totfact>
</mgrwt>
</event>
<event>
 5      1 +1.6944000e+03 9.13566800e+01 7.81860800e-03 1.29959900e-01
       -3 -1    0    0    0  501 -0.0000000000e+00 +0.0000000000e+00 +8.7523817530e+00 8.7523817530e+00 0.0000000000e+00 0.0000e+00 1.0000e+00
        3 -1    0    0  501    0 +0.0000000000e+00 -0.0000000000e+00 -2.3839350218e+02 2.3839350218e+02 0.0000000000e+00 0.0000e+00 -1.0000e+00
       23  2    1    2    0    0 +0.0000000000e+00 +0.0000000000e+00 -2.2964112043e+02 2.4714588393e+02 9.1356684233e+01 0.0000e+00 0.0000e+00
      -11  1    3    3    0    0 +3.9019816603e+01 -8.1128655722e+00 -5.4440785022e+01 6.7469724687e+01 0.0000000000e+00 0.0000e+00 1.0000e+00
       11  1    3    3    0    0 -3.9019816603e+01 +8.1128655722e+00 -1.7520033541e+02 1.7967615925e+02 0.0000000000e+00 0.0000e+00 -1.0000e+00
<mgrwt>
<rscale>  0 0.91356684E+02</rscale>
<asrwt>0</asrwt>
<pdfrwt beam="2">  1        3 0.36675925E-01 0.91356684E+02</pdfrwt>
<pdfrwt beam="1">  1       -3 0.13465202E-02 0.91356684E+02</pdfrwt>
<totfact> 0.26092192E+04</totfact>
</mgrwt>
</event>
<event>
 4      1 +1.6944000e+03 2.29942500e+01 7.81860800e-03 1.69160300e-01
        2 -1    0    0  501    0 +0.0000000000e+00 +0.0000000000e+00 +3.4115643338e+01 3.4115643338e+01 0.0000000000e+00 0.0000e+00 1.0000e+00
       -2 -1    0    0    0  501 -0.0000000000e+00 -0.0000000000e+00 -3.8745821294e+00 3.8745821294e+00 0.0000000000e+00 0.0000e+00 -1.0000e+00
      -13  1    1    2    0    0 +3.5514302053e+00 -1.0668617899e+01 +1.1158165814e+01 1.5840982568e+01 0.0000000000e+00 0.0000e+00 -1.0000e+00
       13  1    1    2    0    0 -3.5514302053e+00 +1.0668617899e+01 +1.9082895395e+01 2.2149242900e+01 0.0000000000e+00 0.0000e+00 1.0000e+00
<mgrwt>
<rscale>  0 0.22994248E+02</rscale>
<asrwt>0</asrwt>
<pdfrwt beam="1">  1        2 0.52485603E-02 0.22994248E+02</pdfrwt>
<pdfrwt beam="2">  1       -2 0.59608958E-03 0.22994248E+02</pdfrwt>
<totfact> 0.32076544E+06</totfact>
</mgrwt>
</event>
<event>
 5      1 +1.6944000e+03 9.41428400e+01 7.81860800e-03 1.29311800e-01
        3 -1    0    0  501    0 +0.0000000000e+00 +0.0000000000e+00 +8.5033816486e+00 8.5033816486e+00 0.0000000000e+00 0.0000e+00 -1.0000e+00
       -3 -1    0    0    0  501 -0.0000000000e+00 -0.0000000000e+00 -2.6056911322e+02 2.6056911322e+02 0.0000000000e+00 0.0000e+00 1.0000e+00
       23  2    1    2    0    0 +0.0000000000e+00 +0.0000000000e+00 -2.5206573157e+02 2.6907249486e+02 9.4142840737e+01 0.0000e+00 0.0000e+00
      -13  1    3    3    0    0 +3.6484566298e+01 -1.2965043947e+01 -2.0253805862e+02 2.0620591924e+02 0.0000000000e+00 0.0000e+00 1.0000e+00
       13  1    3    3    0    0 -3.6484566298e+01 +1.2965043947e+01 -4.9527672950e+01 6.2866575621e+01 0.0000000000e+00 0.0000e+00 -1.0000e+00
<mgrwt>
<rscale>  0 0.94142841E+02</rscale>
<asrwt>0</asrwt>
<pdfrwt beam="1">  1        3 0.13082127E-02 0.94142841E+02</pdfrwt>
<pdfrwt beam="2">  1       -3 0.40087553E-01 0.94142841E+02</pdfrwt>
<totfact> 0.23183964E+04</totfact>
</mgrwt>
</event>
<event>
 4      1 +1.6944000e+03 2.19589600e+01 7.81860800e-03 1.70896300e-01
        3 -1    0    0  501    0 +0.0000000000e+00 +0.0000000000e+00 +1.5342208979e+00 1.5342208979e+00 0.0000000000e+00 0.0000e+00 -1.0000e+00
       -3 -1    0    0    0  501 -0.0000000000e+00 -0.0000000000e+00 -7.8573407933e+01 7.8573407933e+01 0.0000000000e+00 0.0000e+00 1.0000e+00
      -11  1    1    2    0    0 -5.6693948189e+00 -8.8740940949e+00 -4.9856428325e+01 5.0956403218e+01 0.0000000000e+00 0.0000e+00 1.0000e+00
       11  1    1    2    0    0 +5.6693948189e+00 +8.8740940949e+00 -2.7182758710e+01 2.9151225612e+01 0.0000000000e+00 0.0000e+00 -1.0000e+00
<mgrwt>
<rscale>  0 0.21958958E+02</rscale>
<asrwt>0</asrwt>
<pdfrwt beam="1">  1        3 0.23603392E-03 0.21958958E+02</pdfrwt>
<pdfrwt beam="2">  1       -3 0.12088220E-01 0.21958958E+02</pdfrwt>
<totfact> 0.12172054E+06</totfact>
</mgrwt>
</event>
<event>
 4      1 +1.6944000e+03 2.77608200e+01 7.81860800e-03 1.62424600e-01
       -2 -1    0    0    0  501 -0.0000000000e+00 +0.0000000000e+00 +3.5432780232e+00 3.5432780232e+00 0.0000000000e+00 0.0000e+00 -1.0000e+00
        2 -1    0    0  501    0 +0.0000000000e+00 -0.0000000000e+00 -5.4375018762e+01 5.4375018762e+01 0.0000000000e+00 0.0000e+00 1.0000e+00
      -11  1    1    2    0    0 -1.2435470668e+01 -3.4098866499e+00 -1.4696598586e+01 1.9551426232e+01 0.0000000000e+00 0.0000e+00 -1.0000e+00
       11  1    1    2    0    0 +1.2435470668e+01 +3.4098866499e+00 -3.6135142153e+01 3.8366870554e+01 0.0000000000e+00 0.0000e+00 1.0000e+00
<mgrwt>
<rscale>  0 0.27760822E+02</rscale>
<asrwt>0</asrwt>
<pdfrwt beam="2">  1        2 0.83653873E-02 0.27760822E+02</pdfrwt>
<pdfrwt beam="1">  1       -2 0.54511971E-03 0.27760822E+02</pdfrwt>
<totfact> 0.22153151E+06</totfact>
</mgrwt>
</event>
<event>
 5      1 +1.6944000e+03 9.30617700e+01 7.81860800e-03 1.29560200e-01
       -2 -1    0    0    0  501 -0.0000000000e+00 +0.0000000000e+00 +3.1301810356e+01 3.1301810356e+01 0.0000000000e+00 0.0000e+00 1.0000e+00
        2 -1    0    0  501    0 +0.0000000000e+00 -0.0000000000e+00 -6.9169263386e+01 6.9169263386e+01 0.0000000000e+00 0.0000e+00 -1.0000e+00
       23  2    1    2    0    0 +0.0000000000e+00 +0.0000000000e+00 -3.7867453031e+01 1.0047107374e+02 9.3061767982e+01 0.0000e+00 0.0000e+00
      -11  1    3    3    0    0 -2.7478550726e+01 -3.7344288811e+01 -2.3178215770e+01 5.1835280872e+01 0.0000000000e+00 0.0000e+00 -1.0000e+00
       11  1    3    3    0    0 +2.7478550726e+01 +3.7344288811e+01 -1.4689237260e+01 4.8635792870e+01 0.0000000000e+00 0.0000e+00 1.0000e+00
<mgrwt>
<rscale>  0 0.93061768E+02</rscale>
<asrwt>0</asrwt>
<pdfrwt beam="2">  1        2 0.10641425E-01 0.93061768E+02</pdfrwt>
<pdfrwt beam="1">  1       -2 0.48156631E-02 0.93061768E+02</pdfrwt>
<totfact> 0.10410072E+05</totfact>
</mgrwt>
</event>
<event>
 4      1 +1.6944000e+03 2.93864900e+01 7.81860800e-03 1.60497100e-01
       -4 -1    0    0    0  501 -0.0000000000e+00 +0.0000000000e+00 +7.0685649618e+00 7.0685649618e+00 0.0000000000e+00 0.0000e+00 1.0000e+00
        4 -1    0    0  501    0 +0.0000000000e+00 -0.0000000000e+00 -3.0542463233e+01 3.0542463233e+01 0.0000000000e+00 0.0000e+00 -1.0000e+00
      -13  1    1    2    0    0 -1.1628278300e+01 -6.6211887507e+00 -1.9504682106e+01 2.3653532945e+01 0.0000000000e+00 0.0000e+00 -1.0000e+00
       13  1    1    2    0    0 +1.1628278300e+01 +6.6211887507e+00 -3.9692161652e+00 1.3957495250e+01 0.0000000000e+00 0.0000e+00 1.0000e+00
<mgrwt>
<rscale>  0 0.29386486E+02</rscale>
<asrwt>0</asrwt>
<pdfrwt beam="2">  1        4 0.46988406E-02 0.29386486E+02</pdfrwt>
<pdfrwt beam="1">  1       -4 0.10874715E-02 0.29386486E+02</pdfrwt>
<totfact> 0.52976487E+05</totfact>
</mgrwt>
</event>
<event>
 4      1 +1.6944000e+03 3.96187400e+01 7.81860800e-03 1.51103600e-01
        2 -1    0    0  501    0 +0.0000000000e+00 +0.0000000000e+00 +8.6397521125e+01 8.6397521125e+01 0.0000000000e+00 0.0000e+00 1.0000e+00
       -2 -1    0    0    0  501 -0.0000000000e+00 -0.0000000000e+00 -4.5419262541e+00 4.5419262541e+00 0.0000000000e+00 0.0000e+00 -1.0000e+00
      -11  1    1    2    0    0 -9.7351595578e+00 +8.5920262168e+00 +7.5267470429e+01 7.6379240314e+01 0.0000000000e+00 0.0000e+00 1.0000e+00
       11  1    1    2    0    0 +9.7351595578e+00 -8.5920262168e+00 +6.5881244422e+00 1.4560207066e+01 0.0000000000e+00 0.0000e+00 -1.0000e+00
<mgrwt>
<rscale>  0 0.39618741E+02</rscale>
<asrwt>0</asrwt>
<pdfrwt beam="1">  1        2 0.13291925E-01 0.39618741E+02</pdfrwt>
<pdfrwt beam="2">  1       -2 0.69875795E-03 0.39618741E+02</pdfrwt>
<totfact> 0.10325505E+06</totfact>
</mgrwt>
</event>
<event>
 5      1 +1.6944000e+03 9.28643900e+01 7.81860800e-03 1.29606000e-01
       -2 -1    0    0    0  501 -0.0000000000e+00 +0.0000000000e+00 +2.8888689691e+01 2.8888689691e+01 0.0000000000e+00 0.0000e+00 1.0000e+00
        2 -1    0    0  501    0 +0.0000000000e+00 -0.0000000000e+00 -7.4629503180e+01 7.4629503180e+01 0.0000000000e+00 0.0000e+00 -1.0000e+00
       23  2    1    2    0    0 +0.0000000000e+00 +0.0000000000e+00 -4.5740813489e+01 1.0351819287e+02 9.2864386266e+01 0.0000e+00 0.0000e+00
      -11  1    3    3    0    0 +7.0966469346e+00 +4.4428165792e+01 -1.0076583414e+01 4.6105984933e+01 0.0000000000e+00 0.0000e+00 -1.0000e+00
       11  1    3    3    0    0 -7.0966469346e+00 -4.4428165792e+01 -3.5664230075e+01 5.7412207937e+01 0.0000000000e+00 0.0000e+00 1.0000e+00
<mgrwt>
<rscale>  0 0.92864386E+02</rscale>
<asrwt>0</asrwt>
<pdfrwt beam="2">  1        2 0.11481462E-01 0.92864386E+02</pdfrwt>
<pdfrwt beam="1">  1       -2 0.44444138E-02 0.92864386E+02</pdfrwt>
<totfact> 0.10698646E+05</totfact>
</mgrwt>
</event>
<event>
 5      1 +1.6944000e+03 9.27489400e+01 7.81860800e-03 1.29632800e-01
        3 -1    0    0  501    0 +0.0000000000e+00 +0.0000000000e+00 +4.0427595123e+01 4.0427595123e+01 0.0000000000e+00 0.0000e+00 -1.0000e+00
       -3 -1    0    0    0  501 -0.0000000000e+00 -0.0000000000e+00 -5.3196131244e+01 5.3196131244e+01 0.0000000000e+00 0.0000e+00 1.0000e+00
       23  2    1    2    0    0 +0.0000000000e+00 +0.0000000000e+00 -1.2768536121e+01 9.3623726367e+01 9.2748944060e+01 0.0000e+00 0.0000e+00
      -11  1    3    3    0    0 +1.1276538498e+00 -4.4200351622e+01 +7.7351153301e+00 4.4886241722e+01 0.0000000000e+00 0.0000e+00 1.0000e+00
       11  1    3    3    0    0 -1.1276538498e+00 +4.4200351622e+01 -2.0503651451e+01 4.8737484645e+01 0.0000000000e+00 0.0000e+00 -1.0000e+00
<mgrwt>
<rscale>  0 0.92748944E+02</rscale>
<asrwt>0</asrwt>
<pdfrwt beam="1">  1        3 0.62196300E-02 0.92748944E+02</pdfrwt>
<pdfrwt beam="2">  1       -3 0.81840202E-02 0.92748944E+02</pdfrwt>
<totfact> 0.33548618E+04</totfact>
</mgrwt>
</event>
<event>
 5      1 +1.6944000e+03 9.22571000e+01 7.81860800e-03 1.29747600e-01
        1 -1    0    0  501    0 +0.0000000000e+00 +0.0000000000e+00 +1.2553356957e+02 1.2553356957e+02 0.0000000000e+00 0.0000e+00 -1.0000e+00
       -1 -1    0    0    0  501 -0.0000000000e+00 -0.0000000000e+00 -1.6950390347e+01 1.6950390347e+01 0.0000000000e+00 0.0000e+00 1.0000e+00
       23  2    1    2    0    0 +0.0000000000e+00 +0.0000000000e+00 +1.0858317922e+02 1.4248395991e+02 9.2257097414e+01 0.0000e+00 0.0000e+00
      -13  1    3    3    0    0 +3.5664533826e+01 +1.8567861811e+01 +8.9207792410e+01 9.7850675481e+01 0.0000000000e+00 0.0000e+00 -1.0000e+00
       13  1    3    3    0    0 -3.5664533826e+01 -1.8567861811e+01 +1.9375386809e+01 4.4633284433e+01 0.0000000000e+00 0.0000e+00 1.0000e+00
<mgrwt>
<rscale>  0 0.92257097E+02</rscale>
<asrwt>0</asrwt>
<pdfrwt beam="1">  1        1 0.19312856E-01 0.92257097E+02</pdfrwt>
<pdfrwt beam="2">  1       -1 0.26077524E-02 0.92257097E+02</pdfrwt>
<totfact> 0.10517705E+05</totfact>
</mgrwt>
</event>
<event>
 5      1 +1.6944000e+03 9.00770000e+01 7.81860800e-03 1.30266500e-01
        3 -1    0    0  501    0 +0.0000000000e+00 +0.0000000000e+00 +8.1524871878e+01 8.1524871878e+01 0.0000000000e+00 0.0000e+00 -1.0000e+00
       -3 -1    0    0    0  501 -0.0000000000e+00 -0.0000000000e+00 -2.4881565574e+01 2.4881565574e+01 0.0000000000e+00 0.0000e+00 1.0000e+00
       23  2    1    2    0    0 +0.0000000000e+00 +0.0000000000e+00 +5.6643306304e+01 1.0640643745e+02 9.0076999186e+01 0.0000e+00 0.0000e+00
      -11  1    3    3    0    0 +2.5904274428e+01 +1.6913585813e+01 +6.6987083440e+01 7.3785975405e+01 0.0000000000e+00 0.0000e+00 -1.0000e+00
       11  1    3    3    0    0 -2.5904274428e+01 -1.6913585813e+01 -1.0343777136e+01 3.2620462047e+01 0.0000000000e+00 0.0000e+00 1.0000e+00
<mgrwt>
<rscale>  0 0.90076999E+02</rscale>
<asrwt>0</asrwt>
<pdfrwt beam="1">  1        3 0.12542288E-01 0.90076999E+02</pdfrwt>
<pdfrwt beam="2">  1       -3 0.38279332E-02 0.90076999E+02</pdfrwt>
<totfact> 0.35347774E+04</totfact>
</mgrwt>
</event>
<event>
 5      1 +1.6944000e+03 8.92104700e+01 7.81860800e-03 1.30477500e-01
       -2 -1    0    0    0  501 -0.0000000000e+00 +0.0000000000e+00 +1.4215303629e+01 1.4215303629e+01 0.0000000000e+00 0.0000e+00 1.0000e+00
        2 -1    0    0  501    0 +0.0000000000e+00 -0.0000000000e+00 -1.3996374254e+02 1.3996374254e+02 0.0000000000e+00 0.0000e+00 -1.0000e+00
       23  2    1    2    0    0 +0.0000000000e+00 +0.0000000000e+00 -1.2574843891e+02 1.5417904617e+02 8.9210472419e+01 0.0000e+00 0.0000e+00
      -13  1    3    3    0    0 -9.7132257313e+00 +1.9457538027e+01 +4.4323022944e+00 2.2194320080e+01 0.0000000000e+00 0.0000e+00 1.0000e+00
       13  1    3    3    0    0 +9.7132257313e+00 -1.9457538027e+01 -1.3018074120e+02 1.3198472609e+02 0.0000000000e+00 0.0000e+00 -1.0000e+00
<mgrwt>
<rscale>  0 0.89210472E+02</rscale>
<asrwt>0</asrwt>
<pdfrwt beam="2">  1        2 0.21532884E-01 0.89210472E+02</pdfrwt>
<pdfrwt beam="1">  1       -2 0.21869697E-02 0.89210472E+02</pdfrwt>
<totfact> 0.14490773E+05</totfact>
</mgrwt>
</event>
<event>
 5      1 +1.6944000e+03 9.21741200e+01 7.81860800e-03 1.29767100e-01
        1 -1    0    0  501    0 +0.0000000000e+00 +0.0000000000e+00 +1.3022870498e+01 1.3022870498e+01 0.0000000000e+00 0.0000e+00 -1.0000e+00
       -1 -1    0    0    0  501 -0.0000000000e+00 -0.0000000000e+00 -1.6309900764e+02 1.6309900764e+02 0.0000000000e+00 0.0000e+00 1.0000e+00
       23  2    1    2    0    0 +0.0000000000e+00 +0.0000000000e+00 -1.5007613714e+02 1.7612187814e+02 9.2174123371e+01 0.0000e+00 0.0000e+00
      -13  1    3    3    0    0 +4.2482162285e+01 +1.5122839010e+01 -5.6852480024e+01 7.2564721849e+01 0.0000000000e+00 0.0000e+00 1.0000e+00
       13  1    3    3    0    0 -4.2482162285e+01 -1.5122839010e+01 -9.3223657116e+01 1.0355715629e+02 0.0000000000e+00 0.0000e+00 -1.0000e+00
<mgrwt>
<rscale>  0 0.92174123E+02</rscale>
<asrwt>0</asrwt>
<pdfrwt beam="1">  1        1 0.20035184E-02 0.92174123E+02</pdfrwt>
<pdfrwt beam="2">  1       -1 0.25092157E-01 0.92174123E+02</pdfrwt>
<totfact> 0.71251373E+04</totfact>
</mgrwt>
</event>
<event>
 5      1 +1.6944000e+03 9.01268300e+01 7.81860800e-03 1.30254500e-01
       -2 -1    0    0    0  501 -0.0000000000e+00 +0.0000000000e+00 +1.4111774844e+02 1.4111774844e+02 0.0000000000e+00 0.0000e+00 1.0000e+00
        2 -1    0    0  501    0 +0.0000000000e+00 -0.0000000000e+00 -1.4390189574e+01 1.4390189574e+01 0.0000000000e+00 0.0000e+00 -1.0000e+00
       23  2    1    2    0    0 +0.0000000000e+00 +0.0000000000e+00 +1.2672755887e+02 1.5550793802e+02 9.0126825139e+01 0.0000e+00 0.0000e+00
      -13  1    3    3    0    0 -3.3390562512e+01 -3.0256624685e+01 +6.2390551418e+01 7.6960859588e+01 0.0000000000e+00 0.0000e+00 -1.0000e+00
       13  1    3    3    0    0 +3.3390562512e+01 +3.0256624685e+01 +6.4337007450e+01 7.8547078429e+01 0.0000000000e+00 0.0000e+00 1.0000e+00
<mgrwt>
<rscale>  0 0.90126825E+02</rscale>
<asrwt>0</asrwt>
<pdfrwt beam="2">  1        2 0.22138754E-02 0.90126825E+02</pdfrwt>
<pdfrwt beam="1">  1       -2 0.21710422E-01 0.90126825E+02</pdfrwt>
<totfact> 0.73518335E+04</totfact>
</mgrwt>
</event>
<event>
 5      1 +1.6944000e+03 9.05809300e+01 7.81860800e-03 1.30145100e-01
       -1 -1    0    0    0  501 -0.0000000000e+00 +0.0000000000e+00 +1.1808879782e+02 1.1808879782e+02 0.0000000000e+00 0.0000e+00 1.0000e+00
        1 -1    0    0  501    0 +0.0000000000e+00 -0.0000000000e+00 -1.7370200563e+01 1.7370200563e+01 0.0000000000e+00 0.0000e+00 -1.0000e+00
       23  2    1    2    0    0 +0.0000000000e+00 +0.0000000000e+00 +1.0071859726e+02 1.3545899838e+02 9.0580927403e+01 0.0000e+00 0.0000e+00
      -13  1    3    3    0    0 -4.0551192309e+01 +1.5687488399e+01 +6.9318456628e+01 8.1826309456e+01 0.0000000000e+00 0.0000e+00 1.0000e+00
       13  1    3    3    0    0 +4.0551192309e+01 -1.5687488399e+01 +3.1400140628e+01 5.3632688926e+01 0.0000000000e+00 0.0000e+00 -1.0000e+00
<mgrwt>
<rscale>  0 0.90580927E+02</rscale>
<asrwt>0</asrwt>
<pdfrwt beam="2">  1        1 0.26723386E-02 0.90580927E+02</pdfrwt>
<pdfrwt beam="1">  1       -1 0.18167507E-01 0.90580927E+02</pdfrwt>
<totfact> 0.80133419E+04</totfact>
</mgrwt>
</event>
<event>
 4      1 +1.6944000e+03 2.51235500e+01 7.81860800e-03 1.65923400e-01
        2 -1    0    0  501    0 +0.0000000000e+00 +0.0000000000e+00 +1.6361729864e+00 1.6361729864e+00 0.0000000000e+00 0.0000e+00 1.0000e+00
       -2 -1    0    0    0  501 -0.0000000000e+00 -0.0000000000e+00 -9.6443432607e+01 9.6443432607e+01 0.0000000000e+00 0.0000e+00 -1.0000e+00
      -11  1    1    2    0    0 -3.3351894388e+00 +1.2105668484e+01 -4.6009983512e+01 4.7692654369e+01 0.0000000000e+00 0.0000e+00 -1.0000e+00
       11  1    1    2    0    0 +3.3351894388e+00 -1.2105668484e+01 -4.8797276108e+01 5.0386951224e+01 0.0000000000e+00 0.0000e+00 1.0000e+00
<mgrwt>
<rscale>  0 0.25123546E+02</rscale>
<asrwt>0</asrwt>
<pdfrwt beam="1">  1        2 0.25171893E-03 0.25123546E+02</pdfrwt>
<pdfrwt beam="2">  1       -2 0.14837451E-01 0.25123546E+02</pdfrwt>
<totfact> 0.18064044E+06</totfact>
</mgrwt>
</event>
<event>
 5      1 +1.6944000e+03 9.37573000e+01 7.81860800e-03 1.29400000e-01
       -1 -1    0    0    0  501 -0.0000000000e+00 +0.0000000000e+00 +7.7791872905e+00 7.7791872905e+00 0.0000000000e+00 0.0000e+00 1.0000e+00
        1 -1    0    0  501    0 +0.0000000000e+00 -0.0000000000e+00 -2.8249837140e+02 2.8249837140e+02 0.0000000000e+00 0.0000e+00 -1.0000e+00
       23  2    1    2    0    0 +0.0000000000e+00 +0.0000000000e+00 -2.7471918411e+02 2.9027755869e+02 9.3757298178e+01 0.0000e+00 0.0000e+00
      -11  1    3    3    0    0 +2.9239797913e+00 +3.7389809595e+01 -5.0280648538e+01 6.2727116439e+01 0.0000000000e+00 0.0000e+00 1.0000e+00
       11  1    3    3    0    0 -2.9239797913e+00 -3.7389809595e+01 -2.2443853557e+02 2.2755044225e+02 0.0000000000e+00 0.0000e+00 -1.0000e+00
<mgrwt>
<rscale>  0 0.93757298E+02</rscale>
<asrwt>0</asrwt>
<pdfrwt beam="2">  1        1 0.43461288E-01 0.93757298E+02</pdfrwt>
<pdfrwt beam="1">  1       -1 0.11967981E-02 0.93757298E+02</pdfrwt>
<totfact> 0.11754903E+05</totfact>
</mgrwt>
</event>
<event>
 4      1 +1.6944000e+03 2.25902000e+01 7.81860800e-03 1.69824000e-01
       -4 -1    0    0    0  501 -0.0000000000e+00 +0.0000000000e+00 +2.1344721635e+01 2.1344721635e+01 0.0000000000e+00 0.0000e+00 1.0000e+00
        4 -1    0    0  501    0 +0.0000000000e+00 -0.0000000000e+00 -5.9770900599e+00 5.9770900599e+00 0.0000000000e+00 0.0000e+00 -1.0000e+00
      -13  1    1    2    0    0 +4.9022598526e+00 +1.0175737523e+01 +7.7312429116e+00 1.3687582064e+01 0.0000000000e+00 0.0000e+00 -1.0000e+00
       13  1    1    2    0    0 -4.9022598526e+00 -1.0175737523e+01 +7.6363886638e+00 1.3634229631e+01 0.0000000000e+00 0.0000e+00 1.0000e+00
<mgrwt>
<rscale>  0 0.22590203E+02</rscale>
<asrwt>0</asrwt>
<pdfrwt beam="2">  1        4 0.91955233E-03 0.22590203E+02</pdfrwt>
<pdfrwt beam="1">  1       -4 0.32838033E-02 0.22590203E+02</pdfrwt>
<totfact> 0.97825188E+05</totfact>
</mgrwt>
</event>
<event>
 5      1 +1.6944000e+03 5.77671700e+01 7.81860800e-03 1.40744800e-01
        3 -1    0    0  501    0 +0.0000000000e+00 +0.0000000000e+00 +1.7440584570e+01 1.7440584570e+01 0.0000000000e+00 0.0000e+00 -1.0000e+00
       -3 -1    0    0    0  501 -0.0000000000e+00 -0.0000000000e+00 -4.7834494942e+01 4.7834494942e+01 0.0000000000e+00 0.0000e+00 1.0000e+00
       23  2    1    2    0    0 +0.0000000000e+00 +0.0000000000e+00 -3.0393910371e+01 6.5275079512e+01 5.7767172492e+01 0.0000e+00 0.0000e+00
      -11  1    3    3    0    0 -2.1485347196e+01 +1.4114664515e+01 -3.1661176065e-01 2.5708833920e+01 0.0000000000e+00 0.0000e+00 -1.0000e+00
       11  1    3    3    0    0 +2.1485347196e+01 -1.4114664515e+01 -3.0077298611e+01 3.9566245592e+01 0.0000000000e+00 0.0000e+00 1.0000e+00
<mgrwt>
<rscale>  0 0.57767172E+02</rscale>
<asrwt>0</asrwt>
<pdfrwt beam="1">  1        3 0.26831669E-02 0.57767172E+02</pdfrwt>
<pdfrwt beam="2">  1       -3 0.73591529E-02 0.57767172E+02</pdfrwt>
<totfact> 0.12573734E+05</totfact>
</mgrwt>
</event>
<event>
 4      1 +1.6944000e+03 2.59723500e+01 7.81860800e-03 1.64741600e-01
       -2 -1    0    0    0  501 -0.0000000000e+00 +0.0000000000e+00 +2.8008094543e+00 2.8008094543e+00 0.0000000000e+00 0.0000e+00 1.0000e+00
        2 -1    0    0  501    0 +0.0000000000e+00 -0.0000000000e+00 -6.0211431353e+01 6.0211431353e+01 0.0000000000e+00 0.0000e+00 -1.0000e+00
      -11  1    1    2    0    0 +1.1773271433e+01 -1.4500932247e+00 -4.1526668775e+01 4.3187693967e+01 0.0000000000e+00 0.0000e+00 -1.0000e+00
       11  1    1    2    0    0 -1.1773271433e+01 +1.4500932247e+00 -1.5883953123e+01 1.9824546840e+01 0.0000000000e+00 0.0000e+00 1.0000e+00
<mgrwt>
<rscale>  0 0.25972350E+02</rscale>
<asrwt>0</asrwt>
<pdfrwt beam="2">  1        2 0.92632962E-02 0.25972350E+02</pdfrwt>
<pdfrwt beam="1">  1       -2 0.43089381E-03 0.25972350E+02</pdfrwt>
<totfact> 0.26345749E+06</totfact>
</mgrwt>
</event>
<event>
 5      1 +1.6944000e+03 9.93513700e+01 7.81860800e-03 1.28166600e-01
        2 -1    0    0  501    0 +0.0000000000e+00 +0.0000000000e+00 +9.4556262125e+01 9.4556262125e+01 0.0000000000e+00 0.0000e+00 -1.0000e+00
       -2 -1    0    0    0  501 -0.0000000000e+00 -0.0000000000e+00 -2.6097410149e+01 2.6097410149e+01 0.0000000000e+00 0.0000e+00 1.0000e+00
       23  2    1    2    0    0 +0.0000000000e+00 +0.0000000000e+00 +6.8458851975e+01 1.2065367227e+02 9.9351367476e+01 0.0000e+00 0.0000e+00
      -11  1    3    3    0    0 +1.0084538815e+01 -2.3395258109e+01 -1.7559841722e+01 3.0941623526e+01 0.0000000000e+00 0.0000e+00 1.0000e+00
       11  1    3    3    0    0 -1.0084538815e+01 +2.3395258109e+01 +8.6018693698e+01 8.9712048748e+01 0.0000000000e+00 0.0000e+00 -1.0000e+00
<mgrwt>
<rscale>  0 0.99351367E+02</rscale>
<asrwt>0</asrwt>
<pdfrwt beam="1">  1        2 0.14547117E-01 0.99351367E+02</pdfrwt>
<pdfrwt beam="2">  1       -2 0.40149862E-02 0.99351367E+02</pdfrwt>
<totfact> 0.95012440E+04</totfact>
</mgrwt>
</event>
<event>
 5      1 +1.6944000e+03 9.21654800e+01 7.81860800e-03 1.29769100e-01
       -2 -1    0    0    0  501 -0.0000000000e+00 +0.0000000000e+00 +9.1810367318e+01 9.1810367318e+01 0.0000000000e+00 0.0000e+00 1.0000e+00
        2 -1    0    0  501    0 +0.0000000000e+00 -0.0000000000e+00 -2.3130489996e+01 2.3130489996e+01 0.0000000000e+00 0.0000e+00 -1.0000e+00
       23  2    1    2    0    0 +0.0000000000e+00 +0.0000000000e+00 +6.8679877322e+01 1.1494085731e+02 9.2165476894e+01 0.0000e+00 0.0000e+00
      -11  1    3    3    0    0 -2.6508373592e+01 -2.9414276077e+01 +4.9406899520e+00 3.9903683098e+01 0.0000000000e+00 0.0000e+00 -1.0000e+00
       11  1    3    3    0    0 +2.6508373592e+01 +2.9414276077e+01 +6.3739187370e+01 7.5037174215e+01 0.0000000000e+00 0.0000e+00 1.0000e+00
<mgrwt>
<rscale>  0 0.92165477E+02</rscale>
<asrwt>0</asrwt>
<pdfrwt beam="2">  1        2 0.35585370E-02 0.92165477E+02</pdfrwt>
<pdfrwt beam="1">  1       -2 0.14124672E-01 0.92165477E+02</pdfrwt>
<totfact> 0.79674623E+04</totfact>
</mgrwt>
</event>
<event>
 5      1 +1.6944000e+03 8.95270100e+01 7.81860800e-03 1.30400100e-01
       -2 -1    0    0    0  501 -0.0000000000e+00 +0.0000000000e+00 +3.9863973263e+02 3.9863973263e+02 0.0000000000e+00 0.0000e+00 1.0000e+00
        2 -1    0    0  501    0 +0.0000000000e+00 -0.0000000000e+00 -5.0265218641e+00 5.0265218641e+00 0.0000000000e+00 0.0000e+00 -1.0000e+00
       23  2    1    2    0    0 +0.0000000000e+00 +0.0000000000e+00 +3.9361321077e+02 4.0366625450e+02 8.9527008929e+01 0.0000e+00 0.0000e+00
      -11  1    3    3    0    0 -1.2525834112e+00 +4.4646664270e+01 +1.8337216778e+02 1.8873326551e+02 0.0000000000e+00 0.0000e+00 1.0000e+00
       11  1    3    3    0    0 +1.2525834112e+00 -4.4646664270e+01 +2.1024104299e+02 2.1493298898e+02 0.0000000000e+00 0.0000e+00 -1.0000e+00
<mgrwt>
<rscale>  0 0.89527009E+02</rscale>
<asrwt>0</asrwt>
<pdfrwt beam="2">  1        2 0.77331137E-03 0.89527009E+02</pdfrwt>
<pdfrwt beam="1">  1       -2 0.61329165E-01 0.89527009E+02</pdfrwt>
<totfact> 0.44856772E+04</totfact>
</mgrwt>
</event>
<event>
 4      1 +1.6944000e+03 2.62767900e+01 7.81860800e-03 1.64331200e-01
        4 -1    0    0  501    0 +0.0000000000e+00 +0.0000000000e+00 +4.1530841607e+01 4.1530841607e+01 0.0000000000e+00 0.0000e+00 1.0000e+00
       -4 -1    0    0    0  501 -0.0000000000e+00 -0.0000000000e+00 -4.1563674311e+00 4.1563674311e+00 0.0000000000e+00 0.0000e+00 -1.0000e+00
      -13  1    1    2    0    0 -9.7002177843e+00 +2.7333055919e+00 +3.3343094356e+01 3.4832845502e+01 0.0000000000e+00 0.0000e+00 1.0000e+00
       13  1    1    2    0    0 +9.7002177843e+00 -2.7333055919e+00 +4.0313798197e+00 1.0854363536e+01 0.0000000000e+00 0.0000e+00 -1.0000e+00
<mgrwt>
<rscale>  0 0.26276791E+02</rscale>
<asrwt>0</asrwt>
<pdfrwt beam="1">  1        4 0.63893600E-02 0.26276791E+02</pdfrwt>
<pdfrwt beam="2">  1       -4 0.63944117E-03 0.26276791E+02</pdfrwt>
<totfact> 0.65886772E+05</totfact>
</mgrwt>
</event>
<event>
 5      1 +1.6944000e+03 9.21043300e+01 7.81860800e-03 1.29783400e-01
        3 -1    0    0  501    0 +0.0000000000e+00 +0.0000000000e+00 +1.1171075176e+02 1.1171075176e+02 0.0000000000e+00 0.0000e+00 -1.0000e+00
       -3 -1    0    0    0  501 -0.0000000000e+00 -0.0000000000e+00 -1.8984762353e+01 1.8984762353e+01 0.0000000000e+00 0.0000e+00 1.0000e+00
       23  2    1    2    0    0 +0.0000000000e+00 +0.0000000000e+00 +9.2725989409e+01 1.3069551411e+02 9.2104333763e+01 0.0000e+00 0.0000e+00
      -13  1    3    3    0    0 +2.7890804741e+01 -1.7473722748e+00 -5.5778483121e+00 2.8496713683e+01 0.0000000000e+00 0.0000e+00 1.0000e+00
       13  1    3    3    0    0 -2.7890804741e+01 +1.7473722748e+00 +9.8303837721e+01 1.0219880043e+02 0.0000000000e+00 0.0000e+00 -1.0000e+00
<mgrwt>
<rscale>  0 0.92104334E+02</rscale>
<asrwt>0</asrwt>
<pdfrwt beam="1">  1        3 0.17186269E-01 0.92104334E+02</pdfrwt>
<pdfrwt beam="2">  1       -3 0.29207327E-02 0.92104334E+02</pdfrwt>
<totfact> 0.31647287E+04</totfact>
</mgrwt>
</event>
<event>
 4      1 +1.6944000e+03 3.03831500e+01 7.81860800e-03 1.59389200e-01
       -4 -1    0    0    0  501 -0.0000000000e+00 +0.0000000000e+00 +9.8541382336e+01 9.8541382336e+01 0.0000000000e+00 0.0000e+00 -1.0000e+00
        4 -1    0    0  501    0 +0.0000000000e+00 -0.0000000000e+00 -2.3420002723e+00 2.3420002723e+00 0.0000000000e+00 0.0000e+00 1.0000e+00
      -11  1    1    2    0    0 -1.4136152432e+01 -2.3172549916e+00 +6.4894170656e+01 6.6456405721e+01 0.0000000000e+00 0.0000e+00 1.0000e+00
       11  1    1    2    0    0 +1.4136152432e+01 +2.3172549916e+00 +3.1305211407e+01 3.4426976886e+01 0.0000000000e+00 0.0000e+00 -1.0000e+00
<mgrwt>
<rscale>  0 0.30383150E+02</rscale>
<asrwt>0</asrwt>
<pdfrwt beam="2">  1        4 0.36030781E-03 0.30383150E+02</pdfrwt>
<pdfrwt beam="1">  1       -4 0.15160209E-01 0.30383150E+02</pdfrwt>
<totfact> 0.40297675E+05</totfact>
</mgrwt>
</event>
<event>
 5      1 +1.6944000e+03 9.04966500e+01 7.81860800e-03 1.30165300e-01
        3 -1    0    0  501    0 +0.0000000000e+00 +0.0000000000e+00 +1.5464213856e+02 1.5464213856e+02 0.0000000000e+00 0.0000e+00 -1.0000e+00
       -3 -1    0    0    0  501 -0.0000000000e+00 -0.0000000000e+00 -1.3239671293e+01 1.3239671293e+01 0.0000000000e+00 0.0000e+00 1.0000e+00
       23  2    1    2    0    0 +0.0000000000e+00 +0.0000000000e+00 +1.4140246726e+02 1.6788180985e+02 9.0496653695e+01 0.0000e+00 0.0000e+00
      -13  1    3    3    0    0 -4.4317949752e+01 -3.3006097637e+00 +5.4912419453e+01 7.0642398779e+01 0.0000000000e+00 0.0000e+00 -1.0000e+00
       13  1    3    3    0    0 +4.4317949752e+01 +3.3006097637e+00 +8.6490047811e+01 9.7239411071e+01 0.0000000000e+00 0.0000e+00 1.0000e+00
<mgrwt>
<rscale>  0 0.90496654E+02</rscale>
<asrwt>0</asrwt>
<pdfrwt beam="1">  1        3 0.23791097E-01 0.90496654E+02</pdfrwt>
<pdfrwt beam="2">  1       -3 0.20368726E-02 0.90496654E+02</pdfrwt>
<totfact> 0.30865515E+04</totfact>
</mgrwt>
</event>
<event>
 5      1 +1.6944000e+03 9.18718700e+01 7.81860800e-03 1.29838100e-01
       -2 -1    0    0    0  501 -0.0000000000e+00 +0.0000000000e+00 +2.1091187444e+01 2.1091187444e+01 0.0000000000e+00 0.0000e+00 1.0000e+00
        2 -1    0    0  501    0 +0.0000000000e+00 -0.0000000000e+00 -1.0004701181e+02 1.0004701181e+02 0.0000000000e+00 0.0000e+00 -1.0000e+00
       23  2    1    2    0    0 +0.0000000000e+00 +0.0000000000e+00 -7.8955824368e+01 1.2113819925e+02 9.1871873373e+01 0.0000e+00 0.0000e+00
      -13  1    3    3    0    0 +9.2109035277e+00 +3.4053748225e+01 -7.8271515188e+01 8.5854112318e+01 0.0000000000e+00 0.0000e+00 -1.0000e+00
       13  1    3    3    0    0 -9.2109035277e+00 -3.4053748225e+01 -6.8430917964e-01 3.5284086937e+01 0.0000000000e+00 0.0000e+00 1.0000e+00
<mgrwt>
<rscale>  0 0.91871873E+02</rscale>
<asrwt>0</asrwt>
<pdfrwt beam="2">  1        2 0.15391848E-01 0.91871873E+02</pdfrwt>
<pdfrwt beam="1">  1       -2 0.32447980E-02 0.91871873E+02</pdfrwt>
<totfact> 0.12015162E+05</totfact>
</mgrwt>
</event>
<event>
 4      1 +1.6944000e+03 6.72310400e+01 7.81860800e-03 1.36977000e-01
        2 -1    0    0  501    0 +0.0000000000e+00 +0.0000000000e+00 +2.1336423589e+01 2.1336423589e+01 0.0000000000e+00 0.0000e+00 -1.0000e+00
       -2 -1    0    0    0  501 -0.0000000000e+00 -0.0000000000e+00 -5.2961222830e+01 5.2961222830e+01 0.0000000000e+00 0.0000e+00 1.0000e+00
      -11  1    1    2    0    0 +2.3064315884e+01 -2.2548532893e+01 -5.3514974150e+00 3.2696139335e+01 0.0000000000e+00 0.0000e+00 -1.0000e+00
       11  1    1    2    0    0 -2.3064315884e+01 +2.2548532893e+01 -2.6273301825e+01 4.1601507084e+01 0.0000000000e+00 0.0000e+00 1.0000e+00
<mgrwt>
<rscale>  0 0.67231037E+02</rscale>
<asrwt>0</asrwt>
<pdfrwt beam="1">  1        2 0.32825267E-02 0.67231037E+02</pdfrwt>
<pdfrwt beam="2">  1       -2 0.81478805E-02 0.67231037E+02</pdfrwt>
<totfact> 0.19745385E+05</totfact>
</mgrwt>
</event>
<event>
 4      1 +1.6944000e+03 4.43192500e+01 7.81860800e-03 1.47863700e-01
       -4 -1    0    0    0  501 -0.0000000000e+00 +0.0000000000e+00 +1.5678621102e+01 1.5678621102e+01 0.0000000000e+00 0.0000e+00 -1.0000e+00
        4 -1    0    0  501    0 +0.0000000000e+00 -0.0000000000e+00 -3.1319659995e+01 3.1319659995e+01 0.0000000000e+00 0.0000e+00 1.0000e+00
      -13  1    1    2    0    0 -1.5766622333e+00 +1.1081727369e+01 -2.8101397920e+01 3.0248621627e+01 0.0000000000e+00 0.0000e+00 1.0000e+00
       13  1    1    2    0    0 +1.5766622333e+00 -1.1081727369e+01 +1.2460359027e+01 1.6749659470e+01 0.0000000000e+00 0.0000e+00 -1.0000e+00
<mgrwt>
<rscale>  0 0.44319255E+02</rscale>
<asrwt>0</asrwt>
<pdfrwt beam="2">  1        4 0.48184092E-02 0.44319255E+02</pdfrwt>
<pdfrwt beam="1">  1       -4 0.24120956E-02 0.44319255E+02</pdfrwt>
<totfact> 0.19585740E+05</totfact>
</mgrwt>
</event>
<event>
 5      1 +1.6944000e+03 8.85937600e+01 7.81860800e-03 1.30629300e-01
        2 -1    0    0  501    0 +0.0000000000e+00 +0.0000000000e+00 +1.4437380981e+02 1.4437380981e+02 0.0000000000e+00 0.0000e+00 1.0000e+00
       -2 -1    0    0    0  501 -0.0000000000e+00 -0.0000000000e+00 -1.3591203032e+01 1.3591203032e+01 0.0000000000e+00 0.0000e+00 -1.0000e+00
       23  2    1    2    0    0 +0.0000000000e+00 +0.0000000000e+00 +1.3078260678e+02 1.5796501284e+02 8.8593764151e+01 0.0000e+00 0.0000e+00
      -13  1    3    3    0    0 -2.4947867804e+01 -1.7679034212e+01 +1.2253915775e+02 1.2629643519e+02 0.0000000000e+00 0.0000e+00 1.0000e+00
       13  1    3    3    0    0 +2.4947867804e+01 +1.7679034212e+01 +8.2434490228e+00 3.1668577651e+01 0.0000000000e+00 0.0000e+00 -1.0000e+00
<mgrwt>
<rscale>  0 0.88593764E+02</rscale>
<asrwt>0</asrwt>
<pdfrwt beam="1">  1        2 0.22211354E-01 0.88593764E+02</pdfrwt>
<pdfrwt beam="2">  1       -2 0.20909544E-02 0.88593764E+02</pdfrwt>
<totfact> 0.14919140E+05</totfact>
</mgrwt>
</event>
<event>
 5      1 +1.6944000e+03 9.12646600e+01 7.81860800e-03 1.29981800e-01
        4 -1    0    0  501    0 +0.0000000000e+00 +0.0000000000e+00 +4.4711820861e+01 4.4711820861e+01 0.0000000000e+00 0.0000e+00 -1.0000e+00
       -4 -1    0    0    0  501 -0.0000000000e+00 -0.0000000000e+00 -4.6571793365e+01 4.6571793365e+01 0.0000000000e+00 0.0000e+00 1.0000e+00
       23  2    1    2    0    0 +0.0000000000e+00 +0.0000000000e+00 -1.8599725038e+00 9.1283614226e+01 9.1264663087e+01 0.0000e+00 0.0000e+00
      -11  1    3    3    0    0 -1.9725691105e+01 -7.1751888150e+00 +3.9596614120e+01 4.4816047057e+01 0.0000000000e+00 0.0000e+00 -1.0000e+00
       11  1    3    3    0    0 +1.9725691105e+01 +7.1751888150e+00 -4.1456586624e+01 4.6467567169e+01 0.0000000000e+00 0.0000e+00 1.0000e+00
<mgrwt>
<rscale>  0 0.91264663E+02</rscale>
<asrwt>0</asrwt>
<pdfrwt beam="1">  1        4 0.68787417E-02 0.91264663E+02</pdfrwt>
<pdfrwt beam="2">  1       -4 0.71648912E-02 0.91264663E+02</pdfrwt>
<totfact> 0.26938664E+04</totfact>
</mgrwt>
</event>
<event>
 5      1 +1.6944000e+03 8.95029000e+01 7.81860800e-03 1.30406000e-01
        1 -1    0    0  501    0 +0.0000000000e+00 +0.0000000000e+00 +1.5779290538e+01 1.5779290538e+01 0.0000000000e+00 0.0000e+00 -1.0000e+00
       -1 -1    0    0    0  501 -0.0000000000e+00 -0.0000000000e+00 -1.2691902480e+02 1.2691902480e+02 0.0000000000e+00 0.0000e+00 1.0000e+00
       23  2    1    2    0    0 +0.0000000000e+00 +0.0000000000e+00 -1.1113973426e+02 1.4269831534e+02 8.9502897542e+01 0.0000e+00 0.0000e+00
      -11  1    3    3    0    0 +3.9406192088e+01 -1.8975317841e+01 -4.0462972802e+01 5.9583242863e+01 0.0000000000e+00 0.0000e+00 -1.0000e+00
       11  1    3    3    0    0 -3.9406192088e+01 +1.8975317841e+01 -7.0676761458e+01 8.3115072473e+01 0.0000000000e+00 0.0000e+00 1.0000e+00
<mgrwt>
<rscale>  0 0.89502898E+02</rscale>
<asrwt>0</asrwt>
<pdfrwt beam="1">  1        1 0.24275831E-02 0.89502898E+02</pdfrwt>
<pdfrwt beam="2">  1       -1 0.19526005E-01 0.89502898E+02</pdfrwt>
<totfact> 0.81428550E+04</totfact>
</mgrwt>
</event>
<event>
 5      1 +1.6944000e+03 9.25303600e+01 7.81860800e-03 1.29683700e-01
       -2 -1    0    0    0  501 -0.0000000000e+00 +0.0000000000e+00 +2.0601933527e+01 2.0601933527e+01 0.0000000000e+00 0.0000e+00 1.0000e+00
        2 -1    0    0  501    0 +0.0000000000e+00 -0.0000000000e+00 -1.0389641052e+02 1.0389641052e+02 0.0000000000e+00 0.0000e+00 -1.0000e+00
       23  2    1    2    0    0 +0.0000000000e+00 +0.0000000000e+00 -8.3294476991e+01 1.2449834404e+02 9.2530361355e+01 0.0000e+00 0.0000e+00
      -13  1    3    3    0    0 +3.3662040778e+01 -2.4626717431e+01 -1.4708640056e+01 4.4226149426e+01 0.0000000000e+00 0.0000e+00 1.0000e+00
       13  1    3    3    0    0 -3.3662040778e+01 +2.4626717431e+01 -6.8585836935e+01 8.0272194618e+01 0.0000000000e+00 0.0000e+00 -1.0000e+00
<mgrwt>
<rscale>  0 0.92530361E+02</rscale>
<asrwt>0</asrwt>
<pdfrwt beam="2">  1        2 0.15984063E-01 0.92530361E+02</pdfrwt>
<pdfrwt beam="1">  1       -2 0.31695283E-02 0.92530361E+02</pdfrwt>
<totfact> 0.11918335E+05</totfact>
</mgrwt>
</event>
<event>
 5      1 +1.6944000e+03 9.06965800e+01 7.81860800e-03 1.30117400e-01
        1 -1    0    0  501    0 +0.0000000000e+00 +0.0000000000e+00 +1.5891841051e+01 1.5891841051e+01 0.0000000000e+00 0.0000e+00 -1.0000e+00
       -1 -1    0    0    0  501 -0.0000000000e+00 -0.0000000000e+00 -1.2940397345e+02 1.2940397345e+02 0.0000000000e+00 0.0000e+00 1.0000e+00
       23  2    1    2    0    0 +0.0000000000e+00 +0.0000000000e+00 -1.1351213240e+02 1.4529581450e+02 9.0696579373e+01 0.0000e+00 0.0000e+00
      -11  1    3    3    0    0 -2.6686873119e+01 -2.2670780083e+01 -1.0291793189e+02 1.0871179407e+02 0.0000000000e+00 0.0000e+00 1.0000e+00
       11  1    3    3    0    0 +2.6686873119e+01 +2.2670780083e+01 -1.0594200514e+01 3.6584020432e+01 0.0000000000e+00 0.0000e+00 -1.0000e+00
<mgrwt>
<rscale>  0 0.90696579E+02</rscale>
<asrwt>0</asrwt>
<pdfrwt beam="1">  1        1 0.24448987E-02 0.90696579E+02</pdfrwt>
<pdfrwt beam="2">  1       -1 0.19908303E-01 0.90696579E+02</pdfrwt>
<totfact> 0.78364467E+04</totfact>
</mgrwt>
</event>
<event>
 5      1 +1.6944000e+03 9.21280100e+01 7.81860800e-03 1.29777900e-01
       -2 -1    0    0    0  501 -0.0000000000e+00 +0.0000000000e+00 +5.2394654206e+00 5.2394654206e+00 0.0000000000e+00 0.0000e+00 1.0000e+00
        2 -1    0    0  501    0 +0.0000000000e+00 -0.0000000000e+00 -4.0498267911e+02 4.0498267911e+02 0.0000000000e+00 0.0000e+00 -1.0000e+00
       23  2    1    2    0    0 +0.0000000000e+00 +0.0000000000e+00 -3.9974321369e+02 4.1022214453e+02 9.2128014048e+01 0.0000e+00 0.0000e+00
      -11  1    3    3    0    0 -2.7466657404e+01 -3.5420393139e+01 -1.5256530389e+02 1.5901318647e+02 0.0000000000e+00 0.0000e+00 1.0000e+00
       11  1    3    3    0    0 +2.7466657404e+01 +3.5420393139e+01 -2.4717790979e+02 2.5120895806e+02 0.0000000000e+00 0.0000e+00 -1.0000e+00
<mgrwt>
<rscale>  0 0.92128014E+02</rscale>
<asrwt>0</asrwt>
<pdfrwt beam="2">  1        2 0.62305007E-01 0.92128014E+02</pdfrwt>
<pdfrwt beam="1">  1       -2 0.80607188E-03 0.92128014E+02</pdfrwt>
<totfact> 0.19505484E+05</totfact>
</mgrwt>
</event>
<event>
 4      1 +1.6944000e+03 2.24037000e+01 7.81860800e-03 1.70136200e-01
        2 -1    0    0  501    0 +0.0000000000e+00 +0.0000000000e+00 +4.0812708020e+01 4.0812708020e+01 0.0000000000e+00 0.0000e+00 1.0000e+00
       -2 -1    0    0    0  501 -0.0000000000e+00 -0.0000000000e+00 -3.0745675447e+00 3.0745675447e+00 0.0000000000e+00 0.0000e+00 -1.0000e+00
      -11  1    1    2    0    0 -8.5922752326e+00 -6.3640363737e+00 +1.2326926182e+01 1.6318126784e+01 0.0000000000e+00 0.0000e+00 -1.0000e+00
       11  1    1    2    0    0 +8.5922752326e+00 +6.3640363737e+00 +2.5411214293e+01 2.7569148780e+01 0.0000000000e+00 0.0000e+00 1.0000e+00
<mgrwt>
<rscale>  0 0.22403699E+02</rscale>
<asrwt>0</asrwt>
<pdfrwt beam="1">  1        2 0.62788778E-02 0.22403699E+02</pdfrwt>
<pdfrwt beam="2">  1       -2 0.47301042E-03 0.22403699E+02</pdfrwt>
<totfact> 0.34840913E+06</totfact>
</mgrwt>
</event>
<event>
 4      1 +1.6944000e+03 2.59760400e+01 7.81860800e-03 1.64736600e-01
       -4 -1    0    0    0  501 -0.0000000000e+00 +0.0000000000e+00 +1.4896256899e+01 1.4896256899e+01 0.0000000000e+00 0.0000e+00 1.0000e+00
        4 -1    0    0  501    0 +0.0000000000e+00 -0.0000000000e+00 -1.1324231419e+01 1.1324231419e+01 0.0000000000e+00 0.0000e+00 -1.0000e+00
      -13  1    1    2    0    0 +8.4308344762e+00 +9.7724730183e+00 +3.2029388014e-01 1.2910568811e+01 0.0000000000e+00 0.0000e+00 -1.0000e+00
       13  1    1    2    0    0 -8.4308344762e+00 -9.7724730183e+00 +3.2517315997e+00 1.3309919506e+01 0.0000000000e+00 0.0000e+00 1.0000e+00
<mgrwt>
<rscale>  0 0.25976040E+02</rscale>
<asrwt>0</asrwt>
<pdfrwt beam="2">  1        4 0.17421895E-02 0.25976040E+02</pdfrwt>
<pdfrwt beam="1">  1       -4 0.22917318E-02 0.25976040E+02</pdfrwt>
<totfact> 0.72774093E+05</totfact>
</mgrwt>
</event>
<event>
 5      1 +1.6944000e+03 9.22268900e+01 7.81860800e-03 1.29754700e-01
       -2 -1    0    0    0  501 -0.0000000000e+00 +0.0000000000e+00 +5.5203830929e+01 5.5203830929e+01 0.0000000000e+00 0.0000e+00 1.0000e+00
        2 -1    0    0  501    0 +0.0000000000e+00 -0.0000000000e+00 -3.8519971680e+01 3.8519971680e+01 0.0000000000e+00 0.0000e+00 -1.0000e+00
       23  2    1    2    0    0 +0.0000000000e+00 +0.0000000000e+00 +1.6683859249e+01 9.3723802609e+01 9.2226894212e+01 0.0000e+00 0.0000e+00
      -11  1    3    3    0    0 +8.8717326016e+00 +1.1049887635e+01 +5.2936309699e+01 5.4800187415e+01 0.0000000000e+00 0.0000e+00 1.0000e+00
       11  1    3    3    0    0 -8.8717326016e+00 -1.1049887635e+01 -3.6252450451e+01 3.8923615194e+01 0.0000000000e+00 0.0000e+00 -1.0000e+00
<mgrwt>
<rscale>  0 0.92226894E+02</rscale>
<asrwt>0</asrwt>
<pdfrwt beam="2">  1        2 0.59261495E-02 0.92226894E+02</pdfrwt>
<pdfrwt beam="1">  1       -2 0.84928971E-02 0.92226894E+02</pdfrwt>
<totfact> 0.91364384E+04</totfact>
</mgrwt>
</event>
<event>
 5      1 +1.6944000e+03 8.83254300e+01 7.81860800e-03 1.30695800e-01
       -2 -1    0    0    0  501 -0.0000000000e+00 +0.0000000000e+00 +7.1799514641e+00 7.1799514641e+00 0.0000000000e+00 0.0000e+00 1.0000e+00
        2 -1    0    0  501    0 +0.0000000000e+00 -0.0000000000e+00 -2.7163771445e+02 2.7163771445e+02 0.0000000000e+00 0.0000e+00 -1.0000e+00
       23  2    1    2    0    0 +0.0000000000e+00 +0.0000000000e+00 -2.6445776298e+02 2.7881766591e+02 8.8325434741e+01 0.0000e+00 0.0000e+00
      -13  1    3    3    0    0 -4.3183657657e+01 -8.3582268623e+00 -1.4471978290e+02 1.5125641741e+02 0.0000000000e+00 0.0000e+00 -1.0000e+00
       13  1    3    3    0    0 +4.3183657657e+01 +8.3582268623e+00 -1.1973798008e+02 1.2756124850e+02 0.0000000000e+00 0.0000e+00 1.0000e+00
<mgrwt>
<rscale>  0 0.88325435E+02</rscale>
<asrwt>0</asrwt>
<pdfrwt beam="2">  1        2 0.41790421E-01 0.88325435E+02</pdfrwt>
<pdfrwt beam="1">  1       -2 0.11046078E-02 0.88325435E+02</pdfrwt>
<totfact> 0.18843723E+05</totfact>
</mgrwt>
</event>
<event>
 4      1 +1.6944000e+03 3.15121000e+01 7.81860800e-03 1.58195200e-01
        4 -1    0    0  501    0 +0.0000000000e+00 +0.0000000000e+00 +1.0332907936e+01 1.0332907936e+01 0.0000000000e+00 0.0000e+00 1.0000e+00
       -4 -1    0    0    0  501 -0.0000000000e+00 -0.0000000000e+00 -2.4025491198e+01 2.4025491198e+01 0.0000000000e+00 0.0000e+00 -1.0000e+00
      -13  1    1    2    0    0 -5.8480471192e+00 -1.3703213665e+01 -1.2435248317e+01 1.9406522629e+01 0.0000000000e+00 0.0000e+00 -1.0000e+00
       13  1    1    2    0    0 +5.8480471192e+00 +1.3703213665e+01 -1.2573349443e+00 1.4951876505e+01 0.0000000000e+00 0.0000e+00 1.0000e+00
<mgrwt>
<rscale>  0 0.31512105E+02</rscale>
<asrwt>0</asrwt>
<pdfrwt beam="1">  1        4 0.15896782E-02 0.31512105E+02</pdfrwt>
<pdfrwt beam="2">  1       -4 0.36962294E-02 0.31512105E+02</pdfrwt>
<totfact> 0.45761950E+05</totfact>
</mgrwt>
</event>
<event>
 5      1 +1.6944000e+03 8.98763500e+01 7.81860800e-03 1.30315100e-01
        3 -1    0    0  501    0 +0.0000000000e+00 +0.0000000000e+00 +9.0236090958e+01 9.0236090958e+01 0.0000000000e+00 0.0000e+00 -1.0000e+00
       -3 -1    0    0    0  501 -0.0000000000e+00 -0.0000000000e+00 -2.2379510741e+01 2.2379510741e+01 0.0000000000e+00 0.0000e+00 1.0000e+00
       23  2    1    2    0    0 +0.0000000000e+00 +0.0000000000e+00 +6.7856580217e+01 1.1261560170e+02 8.9876349878e+01 0.0000e+00 0.0000e+00
      -13  1    3    3    0    0 -9.6905908530e+00 +2.2713183255e+01 +8.0972670672e+01 8.4654413000e+01 0.0000000000e+00 0.0000e+00 -1.0000e+00
       13  1    3    3    0    0 +9.6905908530e+00 -2.2713183255e+01 -1.3116090455e+01 2.7961188699e+01 0.0000000000e+00 0.0000e+00 1.0000e+00
<mgrwt>
<rscale>  0 0.89876350E+02</rscale>
<asrwt>0</asrwt>
<pdfrwt beam="1">  1        3 0.13882475E-01 0.89876350E+02</pdfrwt>
<pdfrwt beam="2">  1       -3 0.34430017E-02 0.89876350E+02</pdfrwt>
<totfact> 0.35100228E+04</totfact>
</mgrwt>
</event>
<event>
 5      1 +1.6944000e+03 9.20387800e+01 7.81860800e-03 1.29798800e-01
       -1 -1    0    0    0  501 -0.0000000000e+00 +0.0000000000e+00 +1.7083467436e+01 1.7083467436e+01 0.0000000000e+00 0.0000e+00 1.0000e+00
        1 -1    0    0  501    0 +0.0000000000e+00 -0.0000000000e+00 -1.2396687861e+02 1.2396687861e+02 0.0000000000e+00 0.0000e+00 -1.0000e+00
       23  2    1    2    0    0 +0.0000000000e+00 +0.0000000000e+00 -1.0688341118e+02 1.4105034605e+02 9.2038777349e+01 0.0000e+00 0.0000e+00
      -11  1    3    3    0    0 -5.6471471539e+00 +2.4359718763e+01 -1.1264695145e+02 1.1538900225e+02 0.0000000000e+00 0.0000e+00 -1.0000e+00
       11  1    3    3    0    0 +5.6471471539e+00 -2.4359718763e+01 +5.7635402720e+00 2.5661343801e+01 0.0000000000e+00 0.0000e+00 1.0000e+00
<mgrwt>
<rscale>  0 0.92038777E+02</rscale>
<asrwt>0</asrwt>
<pdfrwt beam="2">  1        1 0.19071827E-01 0.92038777E+02</pdfrwt>
<pdfrwt beam="1">  1       -1 0.26282258E-02 0.92038777E+02</pdfrwt>
<totfact> 0.10562113E+05</totfact>
</mgrwt>
</event>
<event>
 4      1 +1.6944000e+03 3.98349100e+01 7.81860800e-03 1.50943000e-01
       -2 -1    0    0    0  501 -0.0000000000e+00 +0.0000000000e+00 +4.6776443946e+01 4.6776443946e+01 0.0000000000e+00 0.0000e+00 -1.0000e+00
        2 -1    0    0  501    0 +0.0000000000e+00 -0.0000000000e+00 -8.4808695924e+00 8.4808695924e+00 0.0000000000e+00 0.0000e+00 1.0000e+00
      -11  1    1    2    0    0 +1.9351661033e+00 +1.5257431920e+01 +3.6703468257e+01 3.9795460529e+01 0.0000000000e+00 0.0000e+00 -1.0000e+00
       11  1    1    2    0    0 -1.9351661033e+00 -1.5257431920e+01 +1.5921060964e+00 1.5461853009e+01 0.0000000000e+00 0.0000e+00 1.0000e+00
<mgrwt>
<rscale>  0 0.39834905E+02</rscale>
<asrwt>0</asrwt>
<pdfrwt beam="2">  1        2 0.13047492E-02 0.39834905E+02</pdfrwt>
<pdfrwt beam="1">  1       -2 0.71963758E-02 0.39834905E+02</pdfrwt>
<totfact> 0.70850513E+05</totfact>
</mgrwt>
</event>
<event>
 5      1 +1.6944000e+03 9.07053200e+01 7.81860800e-03 1.30115300e-01
        1 -1    0    0  501    0 +0.0000000000e+00 +0.0000000000e+00 +1.3250574385e+02 1.3250574385e+02 0.0000000000e+00 0.0000e+00 -1.0000e+00
       -1 -1    0    0    0  501 -0.0000000000e+00 -0.0000000000e+00 -1.5522826381e+01 1.5522826381e+01 0.0000000000e+00 0.0000e+00 1.0000e+00
       23  2    1    2    0    0 +0.0000000000e+00 +0.0000000000e+00 +1.1698291747e+02 1.4802857023e+02 9.0705317511e+01 0.0000e+00 0.0000e+00
      -11  1    3    3    0    0 +9.5398082264e+00 -3.7011600009e+01 +1.8650030471e+01 4.2528697521e+01 0.0000000000e+00 0.0000e+00 1.0000e+00
       11  1    3    3    0    0 -9.5398082264e+00 +3.7011600009e+01 +9.8332886998e+01 1.0549987271e+02 0.0000000000e+00 0.0000e+00 -1.0000e+00
<mgrwt>
<rscale>  0 0.90705318E+02</rscale>
<asrwt>0</asrwt>
<pdfrwt beam="1">  1        1 0.20385498E-01 0.90705318E+02</pdfrwt>
<pdfrwt beam="2">  1       -1 0.23881272E-02 0.90705318E+02</pdfrwt>
<totfact> 0.11118748E+05</totfact>
</mgrwt>
</event>
<event>
 5      1 +1.6944000e+03 9.40132000e+01 7.81860800e-03 1.29341400e-01
       -2 -1    0    0    0  501 -0.0000000000e+00 +0.0000000000e+00 +6.2240730668e+00 6.2240730668e+00 0.0000000000e+00 0.0000e+00 1.0000e+00
        2 -1    0    0  501    0 +0.0000000000e+00 -0.0000000000e+00 -3.5501197870e+02 3.5501197870e+02 0.0000000000e+00 0.0000e+00 -1.0000e+00
       23  2    1    2    0    0 +0.0000000000e+00 +0.0000000000e+00 -3.4878790563e+02 3.6123605177e+02 9.4013201094e+01 0.0000e+00 0.0000e+00
      -13  1    3    3    0    0 +4.4753317962e+01 -7.2068676378e+00 -1.2658395732e+02 1.3445555645e+02 0.0000000000e+00 0.0000e+00 1.0000e+00
       13  1    3    3    0    0 -4.4753317962e+01 +7.2068676378e+00 -2.2220394831e+02 2.2678049531e+02 0.0000000000e+00 0.0000e+00 -1.0000e+00
<mgrwt>
<rscale>  0 0.94013201E+02</rscale>
<asrwt>0</asrwt>
<pdfrwt beam="2">  1        2 0.54617232E-01 0.94013201E+02</pdfrwt>
<pdfrwt beam="1">  1       -2 0.95754962E-03 0.94013201E+02</pdfrwt>
<totfact> 0.17619549E+05</totfact>
</mgrwt>
</event>
<event>
 5      1 +1.6944000e+03 9.16953800e+01 7.81860800e-03 1.29879700e-01
       -2 -1    0    0    0  501 -0.0000000000e+00 +0.0000000000e+00 +5.4129471199e+01 5.4129471199e+01 0.0000000000e+00 0.0000e+00 -1.0000e+00
        2 -1    0    0  501    0 +0.0000000000e+00 -0.0000000000e+00 -3.8833014100e+01 3.8833014100e+01 0.0000000000e+00 0.0000e+00 1.0000e+00
       23  2    1    2    0    0 +0.0000000000e+00 +0.0000000000e+00 +1.5296457100e+01 9.2962485299e+01 9.1695376509e+01 0.0000e+00 0.0000e+00
      -11  1    3    3    0    0 +3.7297791299e+01 -4.3145540904e+00 -1.9026377481e+01 4.2092085394e+01 0.0000000000e+00 0.0000e+00 1.0000e+00
       11  1    3    3    0    0 -3.7297791299e+01 +4.3145540904e+00 +3.4322834580e+01 5.0870399904e+01 0.0000000000e+00 0.0000e+00 -1.0000e+00
<mgrwt>
<rscale>  0 0.91695377E+02</rscale>
<asrwt>0</asrwt>
<pdfrwt beam="2">  1        2 0.59743098E-02 0.91695377E+02</pdfrwt>
<pdfrwt beam="1">  1       -2 0.83276110E-02 0.91695377E+02</pdfrwt>
<totfact> 0.93111766E+04</totfact>
</mgrwt>
</event>
<event>
 5      1 +1.6944000e+03 9.02423700e+01 7.81860800e-03 1.30226600e-01
        2 -1    0    0  501    0 +0.0000000000e+00 +0.0000000000e+00 +1.1667307913e+02 1.1667307913e+02 0.0000000000e+00 0.0000e+00 -1.0000e+00
       -2 -1    0    0    0  501 -0.0000000000e+00 -0.0000000000e+00 -1.7449796941e+01 1.7449796941e+01 0.0000000000e+00 0.0000e+00 1.0000e+00
       23  2    1    2    0    0 +0.0000000000e+00 +0.0000000000e+00 +9.9223282189e+01 1.3412287607e+02 9.0242374509e+01 0.0000e+00 0.0000e+00
      -13  1    3    3    0    0 -3.1939935796e+01 +2.1780023396e+01 +1.5029768236e+01 4.1477980315e+01 0.0000000000e+00 0.0000e+00 1.0000e+00
       13  1    3    3    0    0 +3.1939935796e+01 -2.1780023396e+01 +8.4193513952e+01 9.2644895755e+01 0.0000000000e+00 0.0000e+00 -1.0000e+00
<mgrwt>
<rscale>  0 0.90242375E+02</rscale>
<asrwt>0</asrwt>
<pdfrwt beam="1">  1        2 0.17949704E-01 0.90242375E+02</pdfrwt>
<pdfrwt beam="2">  1       -2 0.26845842E-02 0.90242375E+02</pdfrwt>
<totfact> 0.13237979E+05</totfact>
</mgrwt>
</event>
<event>
 5      1 +1.6944000e+03 9.01918500e+01 7.81860800e-03 1.30238800e-01
        4 -1    0    0  501    0 +0.0000000000e+00 +0.0000000000e+00 +3.3558421442e+01 3.3558421442e+01 0.0000000000e+00 0.0000e+00 -1.0000e+00
       -4 -1    0    0    0  501 -0.0000000000e+00 -0.0000000000e+00 -6.0600065233e+01 6.0600065233e+01 0.0000000000e+00 0.0000e+00 1.0000e+00
       23  2    1    2    0    0 +0.0000000000e+00 +0.0000000000e+00 -2.7041643791e+01 9.4158486676e+01 9.0191851706e+01 0.0000e+00 0.0000e+00
      -11  1    3    3    0    0 -1.8319732622e+01 +2.0385140890e+00 -5.6487597805e+01 5.9418994007e+01 0.0000000000e+00 0.0000e+00 1.0000e+00
       11  1    3    3    0    0 +1.8319732622e+01 -2.0385140890e+00 +2.9445954014e+01 3.4739492668e+01 0.0000000000e+00 0.0000e+00 -1.0000e+00
<mgrwt>
<rscale>  0 0.90191852E+02</rscale>
<asrwt>0</asrwt>
<pdfrwt beam="1">  1        4 0.51628341E-02 0.90191852E+02</pdfrwt>
<pdfrwt beam="2">  1       -4 0.93230869E-02 0.90191852E+02</pdfrwt>
<totfact> 0.27625651E+04</totfact>
</mgrwt>
</event>
<event>
 5      1 +1.6944000e+03 5.67494500e+01 7.81860800e-03 1.41200200e-01
       -1 -1    0    0    0  501 -0.0000000000e+00 +0.0000000000e+00 +1.7750973577e+01 1.7750973577e+01 0.0000000000e+00 0.0000e+00 1.0000e+00
        1 -1    0    0  501    0 +0.0000000000e+00 -0.0000000000e+00 -4.5356663724e+01 4.5356663724e+01 0.0000000000e+00 0.0000e+00 -1.0000e+00
       23  2    1    2    0    0 +0.0000000000e+00 +0.0000000000e+00 -2.7605690147e+01 6.3107637301e+01 5.6749447198e+01 0.0000e+00 0.0000e+00
      -11  1    3    3    0    0 -6.1564873164e+00 -1.5125411979e+01 +1.2001376618e+01 2.0266066820e+01 0.0000000000e+00 0.0000e+00 1.0000e+00
       11  1    3    3    0    0 +6.1564873164e+00 +1.5125411979e+01 -3.9607066765e+01 4.2841570482e+01 0.0000000000e+00 0.0000e+00 -1.0000e+00
<mgrwt>
<rscale>  0 0.56749447E+02</rscale>
<asrwt>0</asrwt>
<pdfrwt beam="2">  1        1 0.69779482E-02 0.56749447E+02</pdfrwt>
<pdfrwt beam="1">  1       -1 0.27309190E-02 0.56749447E+02</pdfrwt>
<totfact> 0.33296585E+05</totfact>
</mgrwt>
</event>
<event>
 4      1 +1.6944000e+03 2.69668900e+01 7.81860800e-03 1.63425900e-01
       -2 -1    0    0    0  501 -0.0000000000e+00 +0.0000000000e+00 +2.7417588378e+01 2.7417588378e+01 0.0000000000e+00 0.0000e+00 1.0000e+00
        2 -1    0    0  501    0 +0.0000000000e+00 -0.0000000000e+00 -6.6309000588e+00 6.6309000588e+00 0.0000000000e+00 0.0000e+00 -1.0000e+00
      -11  1    1    2    0    0 -6.4531483912e+00 +9.0698941479e+00 +7.8616929571e-01 1.1159039662e+01 0.0000000000e+00 0.0000e+00 -1.0000e+00
       11  1    1    2    0    0 +6.4531483912e+00 -9.0698941479e+00 +2.0000519023e+01 2.2889448775e+01 0.0000000000e+00 0.0000e+00 1.0000e+00
<mgrwt>
<rscale>  0 0.26966890E+02</rscale>
<asrwt>0</asrwt>
<pdfrwt beam="2">  1        2 0.10201385E-02 0.26966890E+02</pdfrwt>
<pdfrwt beam="1">  1       -2 0.42180905E-02 0.26966890E+02</pdfrwt>
<totfact> 0.18725514E+06</totfact>
</mgrwt>
</event>
<event>
 5      1 +1.6944000e+03 9.21475100e+01 7.81860800e-03 1.29773300e-01
       -2 -1    0    0    0  501 -0.0000000000e+00 +0.0000000000e+00 +4.2428147467e+01 4.2428147467e+01 0.0000000000e+00 0.0000e+00 1.0000e+00
        2 -1    0    0  501    0 +0.0000000000e+00 -0.0000000000e+00 -5.0032608256e+01 5.0032608256e+01 0.0000000000e+00 0.0000e+00 -1.0000e+00
       23  2    1    2    0    0 +0.0000000000e+00 +0.0000000000e+00 -7.6044607885e+00 9.2460755723e+01 9.2147509597e+01 0.0000e+00 0.0000e+00
      -13  1    3    3    0    0 -1.1090952013e+01 -2.8120694152e+01 +3.1086764981e+01 4.3360922651e+01 0.0000000000e+00 0.0000e+00 1.0000e+00
       13  1    3    3    0    0 +1.1090952013e+01 +2.8120694152e+01 -3.8691225769e+01 4.9099833072e+01 0.0000000000e+00 0.0000e+00 -1.0000e+00
<mgrwt>
<rscale>  0 0.92147510E+02</rscale>
<asrwt>0</asrwt>
<pdfrwt beam="2">  1        2 0.76973243E-02 0.92147510E+02</pdfrwt>
<pdfrwt beam="1">  1       -2 0.65274073E-02 0.92147510E+02</pdfrwt>
<totfact> 0.98080666E+04</totfact>
</mgrwt>
</event>
<event>
 5      1 +1.6944000e+03 9.11504400e+01 7.81860800e-03 1.30008900e-01
        2 -1    0    0  501    0 +0.0000000000e+00 +0.0000000000e+00 +3.2236194206e+01 3.2236194206e+01 0.0000000000e+00 0.0000e+00 -1.0000e+00
       -2 -1    0    0    0  501 -0.0000000000e+00 -0.0000000000e+00 -6.4433808890e+01 6.4433808890e+01 0.0000000000e+00 0.0000e+00 1.0000e+00
       23  2    1    2    0    0 +0.0000000000e+00 +0.0000000000e+00 -3.2197614684e+01 9.6670003096e+01 9.1150442167e+01 0.0000e+00 0.0000e+00
      -11  1    3    3    0    0 +5.1229625573e+00 -3.9417612358e+01 -3.9744839236e+01 5.6210720999e+01 0.0000000000e+00 0.0000e+00 -1.0000e+00
       11  1    3    3    0    0 -5.1229625573e+00 +3.9417612358e+01 +7.5472245520e+00 4.0459282097e+01 0.0000000000e+00 0.0000e+00 1.0000e+00
<mgrwt>
<rscale>  0 0.91150442E+02</rscale>
<asrwt>0</asrwt>
<pdfrwt beam="1">  1        2 0.49594145E-02 0.91150442E+02</pdfrwt>
<pdfrwt beam="2">  1       -2 0.99128936E-02 0.91150442E+02</pdfrwt>
<totfact> 0.90246993E+04</totfact>
</mgrwt>
</event>
<event>
 4      1 +1.6944000e+03 8.52112400e+01 7.81860800e-03 1.31488100e-01
        3 -1    0    0  501    0 +0.0000000000e+00 +0.0000000000e+00 +7.4152486064e+01 7.4152486064e+01 0.0000000000e+00 0.0000e+00 -1.0000e+00
       -3 -1    0    0    0  501 -0.0000000000e+00 -0.0000000000e+00 -2.4479813912e+01 2.4479813912e+01 0.0000000000e+00 0.0000e+00 1.0000e+00
      -11  1    1    2    0    0 -3.8655240623e+01 +1.6507992521e+01 +3.2897215829e+01 5.3375727198e+01 0.0000000000e+00 0.0000e+00 -1.0000e+00
       11  1    1    2    0    0 +3.8655240623e+01 -1.6507992521e+01 +1.6775456323e+01 4.5256572777e+01 0.0000000000e+00 0.0000e+00 1.0000e+00
<mgrwt>
<rscale>  0 0.85211245E+02</rscale>
<asrwt>0</asrwt>
<pdfrwt beam="1">  1        3 0.11408075E-01 0.85211245E+02</pdfrwt>
<pdfrwt beam="2">  1       -3 0.37661253E-02 0.85211245E+02</pdfrwt>
<totfact> 0.41763693E+04</totfact>
</mgrwt>
</event>
<event>
 5      1 +1.6944000e+03 8.65556300e+01 7.81860800e-03 1.31141400e-01
       -2 -1    0    0    0  501 -0.0000000000e+00 +0.0000000000e+00 +1.6380260083e+02 1.6380260083e+02 0.0000000000e+00 0.0000e+00 -1.0000e+00
        2 -1    0    0  501    0 +0.0000000000e+00 -0.0000000000e+00 -1.1434306616e+01 1.1434306616e+01 0.0000000000e+00 0.0000e+00 1.0000e+00
       23  2    1    2    0    0 +0.0000000000e+00 +0.0000000000e+00 +1.5236829421e+02 1.7523690745e+02 8.6555627488e+01 0.0000e+00 0.0000e+00
      -13  1    3    3    0    0 -3.3730682710e+01 +2.1160113990e+01 +1.1050980085e+02 1.1746457110e+02 0.0000000000e+00 0.0000e+00 1.0000e+00
       13  1    3    3    0    0 +3.3730682710e+01 -2.1160113990e+01 +4.1858493366e+01 5.7772336347e+01 0.0000000000e+00 0.0000e+00 -1.0000e+00
<mgrwt>
<rscale>  0 0.86555627E+02</rscale>
<asrwt>0</asrwt>
<pdfrwt beam="2">  1        2 0.17591242E-02 0.86555627E+02</pdfrwt>
<pdfrwt beam="1">  1       -2 0.25200398E-01 0.86555627E+02</pdfrwt>
<totfact> 0.77128339E+04</totfact>
</mgrwt>
</event>
<event>
 5      1 +1.6944000e+03 9.10505200e+01 7.81860800e-03 1.30032700e-01
       -4 -1    0    0    0  501 -0.0000000000e+00 +0.0000000000e+00 +1.9614922769e+01 1.9614922769e+01 0.0000000000e+00 0.0000e+00 1.0000e+00
        4 -1    0    0  501    0 +0.0000000000e+00 -0.0000000000e+00 -1.0566185413e+02 1.0566185413e+02 0.0000000000e+00 0.0000e+00 -1.0000e+00
       23  2    1    2    0    0 +0.0000000000e+00 +0.0000000000e+00 -8.6046931366e+01 1.2527677690e+02 9.1050515834e+01 0.0000e+00 0.0000e+00
      -11  1    3    3    0    0 +7.3280257594e-01 +3.5433161963e+01 -3.7076680483e+00 3.5634151718e+01 0.0000000000e+00 0.0000e+00 1.0000e+00
       11  1    3    3    0    0 -7.3280257594e-01 -3.5433161963e+01 -8.2339263318e+01 8.9642625185e+01 0.0000000000e+00 0.0000e+00 -1.0000e+00
<mgrwt>
<rscale>  0 0.91050516E+02</rscale>
<asrwt>0</asrwt>
<pdfrwt beam="2">  1        4 0.16255670E-01 0.91050516E+02</pdfrwt>
<pdfrwt beam="1">  1       -4 0.30176805E-02 0.91050516E+02</pdfrwt>
<totfact> 0.25070821E+04</totfact>
</mgrwt>
</event>
<event>
 5      1 +1.6944000e+03 8.69927900e+01 7.81860800e-03 1.31030200e-01
        1 -1    0    0  501    0 +0.0000000000e+00 +0.0000000000e+00 +7.6725113938e+01 7.6725113938e+01 0.0000000000e+00 0.0000e+00 -1.0000e+00
       -1 -1    0    0    0  501 -0.0000000000e+00 -0.0000000000e+00 -2.4658632993e+01 2.4658632993e+01 0.0000000000e+00 0.0000e+00 1.0000e+00
       23  2    1    2    0    0 +0.0000000000e+00 +0.0000000000e+00 +5.2066480945e+01 1.0138374693e+02 8.6992791102e+01 0.0000e+00 0.0000e+00
      -13  1    3    3    0    0 +2.3543536866e+01 +9.8583805235e+00 -1.5013135129e+01 2.9612160021e+01 0.0000000000e+00 0.0000e+00 1.0000e+00
       13  1    3    3    0    0 -2.3543536866e+01 -9.8583805235e+00 +6.7079616075e+01 7.1771586909e+01 0.0000000000e+00 0.0000e+00 -1.0000e+00
<mgrwt>
<rscale>  0 0.86992791E+02</rscale>
<asrwt>0</asrwt>
<pdfrwt beam="1">  1        1 0.11803864E-01 0.86992791E+02</pdfrwt>
<pdfrwt beam="2">  1       -1 0.37936359E-02 0.86992791E+02</pdfrwt>
<totfact> 0.11381869E+05</totfact>
</mgrwt>
</event>
<event>
 5      1 +1.6944000e+03 9.05249200e+01 7.81860800e-03 1.30158500e-01
       -3 -1    0    0    0  501 -0.0000000000e+00 +0.0000000000e+00 +1.0202021131e+01 1.0202021131e+01 0.0000000000e+00 0.0000e+00 1.0000e+00
        3 -1    0    0  501    0 +0.0000000000e+00 -0.0000000000e+00 -2.0081221113e+02 2.0081221113e+02 0.0000000000e+00 0.0000e+00 -1.0000e+00
       23  2    1    2    0    0 +0.0000000000e+00 +0.0000000000e+00 -1.9061019000e+02 2.1101423226e+02 9.0524923007e+01 0.0000e+00 0.0000e+00
      -13  1    3    3    0    0 -1.9751994816e+01 -3.8218714267e+01 -6.2514942263e+01 7.5887610488e+01 0.0000000000e+00 0.0000e+00 -1.0000e+00
       13  1    3    3    0    0 +1.9751994816e+01 +3.8218714267e+01 -1.2809524773e+02 1.3512662177e+02 0.0000000000e+00 0.0000e+00 1.0000e+00
<mgrwt>
<rscale>  0 0.90524923E+02</rscale>
<asrwt>0</asrwt>
<pdfrwt beam="2">  1        3 0.30894186E-01 0.90524923E+02</pdfrwt>
<pdfrwt beam="1">  1       -3 0.15695417E-02 0.90524923E+02</pdfrwt>
<totfact> 0.28484028E+04</totfact>
</mgrwt>
</event>
<event>
 4      1 +1.6944000e+03 3.78142100e+01 7.81860800e-03 1.52494200e-01
        4 -1    0    0  501    0 +0.0000000000e+00 +0.0000000000e+00 +1.9162700342e+00 1.9162700342e+00 0.0000000000e+00 0.0000e+00 -1.0000e+00
       -4 -1    0    0    0  501 -0.0000000000e+00 -0.0000000000e+00 -1.8654915322e+02 1.8654915322e+02 0.0000000000e+00 0.0000e+00 1.0000e+00
      -11  1    1    2    0    0 -1.5949874561e+01 -1.0118164702e+01 -9.6494664165e+01 9.8325967922e+01 0.0000000000e+00 0.0000e+00 -1.0000e+00
       11  1    1    2    0    0 +1.5949874561e+01 +1.0118164702e+01 -8.8138219023e+01 9.0139455334e+01 0.0000000000e+00 0.0000e+00 1.0000e+00
<mgrwt>
<rscale>  0 0.37814206E+02</rscale>
<asrwt>0</asrwt>
<pdfrwt beam="1">  1        4 0.29481088E-03 0.37814206E+02</pdfrwt>
<pdfrwt beam="2">  1       -4 0.28699860E-01 0.37814206E+02</pdfrwt>
<totfact> 0.19807379E+05</totfact>
</mgrwt>
</event>
<event>
 4      1 +1.6944000e+03 1.09413200e+02 7.81860800e-03 1.26166000e-01
       -2 -1    0    0    0  501 -0.0000000000e+00 +0.0000000000e+00 +4.0897332351e+02 4.0897332351e+02 0.0000000000e+00 0.0000e+00 -1.0000e+00
        2 -1    0    0  501    0 +0.0000000000e+00 -0.0000000000e+00 -7.3178658654e+00 7.3178658654e+00 0.0000000000e+00 0.0000e+00 1.0000e+00
      -13  1    1    2    0    0 -4.0816874217e+01 +2.9395615619e+01 +2.8266925774e+02 2.8710978511e+02 0.0000000000e+00 0.0000e+00 -1.0000e+00
       13  1    1    2    0    0 +4.0816874217e+01 -2.9395615619e+01 +1.1898619991e+02 1.2918140426e+02 0.0000000000e+00 0.0000e+00 1.0000e+00
<mgrwt>
<rscale>  0 0.10941320E+03</rscale>
<asrwt>0</asrwt>
<pdfrwt beam="2">  1        2 0.11258258E-02 0.10941320E+03</pdfrwt>
<pdfrwt beam="1">  1       -2 0.62918955E-01 0.10941320E+03</pdfrwt>
<totfact> 0.26183544E+04</totfact>
</mgrwt>
</event>
<event>
 5      1 +1.6944000e+03 9.01469700e+01 7.81860800e-03 1.30249600e-01
        1 -1    0    0  501    0 +0.0000000000e+00 +0.0000000000e+00 +1.3353484195e+01 1.3353484195e+01 0.0000000000e+00 0.0000e+00 -1.0000e+00
       -1 -1    0    0    0  501 -0.0000000000e+00 -0.0000000000e+00 -1.5214150530e+02 1.5214150530e+02 0.0000000000e+00 0.0000e+00 1.0000e+00
       23  2    1    2    0    0 +0.0000000000e+00 +0.0000000000e+00 -1.3878802111e+02 1.6549498950e+02 9.0146973026e+01 0.0000e+00 0.0000e+00
      -13  1    3    3    0    0 -3.6672033664e+01 +1.2115629207e+01 -2.6733344629e+01 4.6971249070e+01 0.0000000000e+00 0.0000e+00 -1.0000e+00
       13  1    3    3    0    0 +3.6672033664e+01 -1.2115629207e+01 -1.1205467648e+02 1.1852374043e+02 0.0000000000e+00 0.0000e+00 1.0000e+00
<mgrwt>
<rscale>  0 0.90146973E+02</rscale>
<asrwt>0</asrwt>
<pdfrwt beam="1">  1        1 0.20543821E-02 0.90146973E+02</pdfrwt>
<pdfrwt beam="2">  1       -1 0.23406387E-01 0.90146973E+02</pdfrwt>
<totfact> 0.76768307E+04</totfact>
</mgrwt>
</event>
<event>
 5      1 +1.6944000e+03 9.16001600e+01 7.81860800e-03 1.29902200e-01
        2 -1    0    0  501    0 +0.0000000000e+00 +0.0000000000e+00 +2.6247625046e+01 2.6247625046e+01 0.0000000000e+00 0.0000e+00 -1.0000e+00
       -2 -1    0    0    0  501 -0.0000000000e+00 -0.0000000000e+00 -7.9917596921e+01 7.9917596921e+01 0.0000000000e+00 0.0000e+00 1.0000e+00
       23  2    1    2    0    0 +0.0000000000e+00 +0.0000000000e+00 -5.3669971875e+01 1.0616522197e+02 9.1600155427e+01 0.0000e+00 0.0000e+00
      -11  1    3    3    0    0 -9.2845627087e+00 +3.5326754395e+01 -5.8859346565e+01 6.9271966616e+01 0.0000000000e+00 0.0000e+00 1.0000e+00
       11  1    3    3    0    0 +9.2845627087e+00 -3.5326754395e+01 +5.1893746906e+00 3.6893255351e+01 0.0000000000e+00 0.0000e+00 -1.0000e+00
<mgrwt>
<rscale>  0 0.91600155E+02</rscale>
<asrwt>0</asrwt>
<pdfrwt beam="1">  1        2 0.40380962E-02 0.91600155E+02</pdfrwt>
<pdfrwt beam="2">  1       -2 0.12295015E-01 0.91600155E+02</pdfrwt>
<totfact> 0.84139009E+04</totfact>
</mgrwt>
</event>
<event>
 5      1 +1.6944000e+03 9.04536400e+01 7.81860800e-03 1.30175700e-01
       -2 -1    0    0    0  501 -0.0000000000e+00 +0.0000000000e+00 +5.2682598125e+01 5.2682598125e+01 0.0000000000e+00 0.0000e+00 1.0000e+00
        2 -1    0    0  501    0 +0.0000000000e+00 -0.0000000000e+00 -3.8826204360e+01 3.8826204360e+01 0.0000000000e+00 0.0000e+00 -1.0000e+00
       23  2    1    2    0    0 +0.0000000000e+00 +0.0000000000e+00 +1.3856393764e+01 9.1508802485e+01 9.0453641630e+01 0.0000e+00 0.0000e+00
      -11  1    3    3    0    0 -4.1670733736e+01 +1.7513750887e+01 +8.4570505768e+00 4.5985902456e+01 0.0000000000e+00 0.0000e+00 -1.0000e+00
       11  1    3    3    0    0 +4.1670733736e+01 -1.7513750887e+01 +5.3993431877e+00 4.5522900029e+01 0.0000000000e+00 0.0000e+00 1.0000e+00
<mgrwt>
<rscale>  0 0.90453642E+02</rscale>
<asrwt>0</asrwt>
<pdfrwt beam="2">  1        2 0.59732622E-02 0.90453642E+02</pdfrwt>
<pdfrwt beam="1">  1       -2 0.81050151E-02 0.90453642E+02</pdfrwt>
<totfact> 0.96866219E+04</totfact>
</mgrwt>
</event>
<event>
 5      1 +1.6944000e+03 9.13689600e+01 7.81860800e-03 1.29957000e-01
       -2 -1    0    0    0  501 -0.0000000000e+00 +0.0000000000e+00 +7.8837336163e+01 7.8837336163e+01 0.0000000000e+00 0.0000e+00 1.0000e+00
        2 -1    0    0  501    0 +0.0000000000e+00 -0.0000000000e+00 -2.6473139442e+01 2.6473139442e+01 0.0000000000e+00 0.0000e+00 -1.0000e+00
       23  2    1    2    0    0 +0.0000000000e+00 +0.0000000000e+00 +5.2364196721e+01 1.0531047561e+02 9.1368961765e+01 0.0000e+00 0.0000e+00
      -13  1    3    3    0    0 +2.4484298297e+01 -2.0371534141e+01 -1.1565564289e+01 3.3885727729e+01 0.0000000000e+00 0.0000e+00 -1.0000e+00
       13  1    3    3    0    0 -2.4484298297e+01 +2.0371534141e+01 +6.3929761010e+01 7.1424747877e+01 0.0000000000e+00 0.0000e+00 1.0000e+00
<mgrwt>
<rscale>  0 0.91368962E+02</rscale>
<asrwt>0</asrwt>
<pdfrwt beam="2">  1        2 0.40727907E-02 0.91368962E+02</pdfrwt>
<pdfrwt beam="1">  1       -2 0.12128821E-01 0.91368962E+02</pdfrwt>
<totfact> 0.84982039E+04</totfact>
</mgrwt>
</event>
<event>
 5      1 +1.6944000e+03 9.23143700e+01 7.81860800e-03 1.29734200e-01
        2 -1    0    0  501    0 +0.0000000000e+00 +0.0000000000e+00 +7.0580587491e+01 7.0580587491e+01 0.0000000000e+00 0.0000e+00 -1.0000e+00
       -2 -1    0    0    0  501 -0.0000000000e+00 -0.0000000000e+00 -3.0185152471e+01 3.0185152471e+01 0.0000000000e+00 0.0000e+00 1.0000e+00
       23  2    1    2    0    0 +0.0000000000e+00 +0.0000000000e+00 +4.0395435020e+01 1.0076573996e+02 9.2314371468e+01 0.0000e+00 0.0000e+00
      -13  1    3    3    0    0 +3.7592141227e+00 +1.9882785905e+01 -2.5085540595e+01 3.2229508422e+01 0.0000000000e+00 0.0000e+00 1.0000e+00
       13  1    3    3    0    0 -3.7592141227e+00 -1.9882785905e+01 +6.5480975615e+01 6.8536231540e+01 0.0000000000e+00 0.0000e+00 -1.0000e+00
<mgrwt>
<rscale>  0 0.92314371E+02</rscale>
<asrwt>0</asrwt>
<pdfrwt beam="1">  1        2 0.10858552E-01 0.92314371E+02</pdfrwt>
<pdfrwt beam="2">  1       -2 0.46438696E-02 0.92314371E+02</pdfrwt>
<totfact> 0.10708728E+05</totfact>
</mgrwt>
</event>
<event>
 4      1 +1.6944000e+03 2.50356400e+01 7.81860800e-03 1.66049000e-01
        2 -1    0    0  501    0 +0.0000000000e+00 +0.0000000000e+00 +3.4911656224e+00 3.4911656224e+00 0.0000000000e+00 0.0000e+00 -1.0000e+00
       -2 -1    0    0    0  501 -0.0000000000e+00 -0.0000000000e+00 -4.4883536500e+01 4.4883536500e+01 0.0000000000e+00 0.0000e+00 1.0000e+00
      -13  1    1    2    0    0 +2.0053373936e+00 -1.1944200530e+01 -2.6809667349e+01 2.9418422251e+01 0.0000000000e+00 0.0000e+00 -1.0000e+00
       13  1    1    2    0    0 -2.0053373936e+00 +1.1944200530e+01 -1.4582703528e+01 1.8956279871e+01 0.0000000000e+00 0.0000e+00 1.0000e+00
<mgrwt>
<rscale>  0 0.25035643E+02</rscale>
<asrwt>0</asrwt>
<pdfrwt beam="1">  1        2 0.53710242E-03 0.25035643E+02</pdfrwt>
<pdfrwt beam="2">  1       -2 0.69051592E-02 0.25035643E+02</pdfrwt>
<totfact> 0.20889989E+06</totfact>
</mgrwt>
</event>
<event>
 5      1 +1.6944000e+03 8.96969000e+01 7.81860800e-03 1.30358700e-01
       -1 -1    0    0    0  501 -0.0000000000e+00 +0.0000000000e+00 +8.0014025239e+00 8.0014025239e+00 0.0000000000e+00 0.0000e+00 1.0000e+00
        1 -1    0    0  501    0 +0.0000000000e+00 -0.0000000000e+00 -2.5137888659e+02 2.5137888659e+02 0.0000000000e+00 0.0000e+00 -1.0000e+00
       23  2    1    2    0    0 +0.0000000000e+00 +0.0000000000e+00 -2.4337748407e+02 2.5938028912e+02 8.9696904242e+01 0.0000e+00 0.0000e+00
      -11  1    3    3    0    0 +3.1192642154e+00 -4.2024825841e+01 -1.6607183207e+02 1.7133496200e+02 0.0000000000e+00 0.0000e+00 -1.0000e+00
       11  1    3    3    0    0 -3.1192642154e+00 +4.2024825841e+01 -7.7305652000e+01 8.8045327118e+01 0.0000000000e+00 0.0000e+00 1.0000e+00
<mgrwt>
<rscale>  0 0.89696904E+02</rscale>
<asrwt>0</asrwt>
<pdfrwt beam="2">  1        1 0.38673680E-01 0.89696904E+02</pdfrwt>
<pdfrwt beam="1">  1       -1 0.12309849E-02 0.89696904E+02</pdfrwt>
<totfact> 0.12932641E+05</totfact>
</mgrwt>
</event>
<event>
 5      1 +1.6944000e+03 9.33691200e+01 7.81860800e-03 1.29489200e-01
        1 -1    0    0  501    0 +0.0000000000e+00 +0.0000000000e+00 +1.6261883728e+01 1.6261883728e+01 0.0000000000e+00 0.0000e+00 -1.0000e+00
       -1 -1    0    0    0  501 -0.0000000000e+00 -0.0000000000e+00 -1.3402188079e+02 1.3402188079e+02 0.0000000000e+00 0.0000e+00 1.0000e+00
       23  2    1    2    0    0 +0.0000000000e+00 +0.0000000000e+00 -1.1775999707e+02 1.5028376452e+02 9.3369122144e+01 0.0000e+00 0.0000e+00
      -13  1    3    3    0    0 +3.3162726717e+01 -1.1618345092e+01 -1.0835146623e+02 1.1390694720e+02 0.0000000000e+00 0.0000e+00 1.0000e+00
       13  1    3    3    0    0 -3.3162726717e+01 +1.1618345092e+01 -9.4085308352e+00 3.6376817322e+01 0.0000000000e+00 0.0000e+00 -1.0000e+00
<mgrwt>
<rscale>  0 0.93369122E+02</rscale>
<asrwt>0</asrwt>
<pdfrwt beam="1">  1        1 0.25018283E-02 0.93369122E+02</pdfrwt>
<pdfrwt beam="2">  1       -1 0.20618750E-01 0.93369122E+02</pdfrwt>
<totfact> 0.72131273E+04</totfact>
</mgrwt>
</event>
<event>
 5      1 +1.6944000e+03 8.87461200e+01 7.81860800e-03 1.30591700e-01
       -2 -1    0    0    0  501 -0.0000000000e+00 +0.0000000000e+00 +5.1553189977e+01 5.1553189977e+01 0.0000000000e+00 0.0000e+00 1.0000e+00
        2 -1    0    0  501    0 +0.0000000000e+00 -0.0000000000e+00 -3.8192946675e+01 3.8192946675e+01 0.0000000000e+00 0.0000e+00 -1.0000e+00
       23  2    1    2    0    0 +0.0000000000e+00 +0.0000000000e+00 +1.3360243303e+01 8.9746136652e+01 8.8746115086e+01 0.0000e+00 0.0000e+00
      -11  1    3    3    0    0 +1.1910217781e+01 +3.3948206745e+01 +3.2946523894e+01 4.8783270344e+01 0.0000000000e+00 0.0000e+00 1.0000e+00
       11  1    3    3    0    0 -1.1910217781e+01 -3.3948206745e+01 -1.9586280591e+01 4.0962866308e+01 0.0000000000e+00 0.0000e+00 -1.0000e+00
<mgrwt>
<rscale>  0 0.88746115E+02</rscale>
<asrwt>0</asrwt>
<pdfrwt beam="2">  1        2 0.58758380E-02 0.88746115E+02</pdfrwt>
<pdfrwt beam="1">  1       -2 0.79312600E-02 0.88746115E+02</pdfrwt>
<totfact> 0.10192466E+05</totfact>
</mgrwt>
</event>
<event>
 4      1 +1.6944000e+03 4.25918100e+01 7.81860800e-03 1.48996100e-01
       -2 -1    0    0    0  501 -0.0000000000e+00 +0.0000000000e+00 +5.5087091555e+01 5.5087091555e+01 0.0000000000e+00 0.0000e+00 -1.0000e+00
        2 -1    0    0  501    0 +0.0000000000e+00 -0.0000000000e+00 -8.2327016551e+00 8.2327016551e+00 0.0000000000e+00 0.0000e+00 1.0000e+00
      -11  1    1    2    0    0 -6.8417146773e-02 +1.9496395129e+01 +3.6164155617e+01 4.1084793481e+01 0.0000000000e+00 0.0000e+00 -1.0000e+00
       11  1    1    2    0    0 +6.8417146773e-02 -1.9496395129e+01 +1.0690234283e+01 2.2234999729e+01 0.0000000000e+00 0.0000e+00 1.0000e+00
<mgrwt>
<rscale>  0 0.42591811E+02</rscale>
<asrwt>0</asrwt>
<pdfrwt beam="2">  1        2 0.12665695E-02 0.42591811E+02</pdfrwt>
<pdfrwt beam="1">  1       -2 0.84749369E-02 0.42591811E+02</pdfrwt>
<totfact> 0.58856330E+05</totfact>
</mgrwt>
</event>
<event>
 4      1 +1.6944000e+03 2.30068200e+01 7.81860800e-03 1.69140000e-01
        2 -1    0    0  501    0 +0.0000000000e+00 +0.0000000000e+00 +6.0538377919e+00 6.0538377919e+00 0.0000000000e+00 0.0000e+00 -1.0000e+00
       -2 -1    0    0    0  501 -0.0000000000e+00 -0.0000000000e+00 -2.1858608931e+01 2.1858608931e+01 0.0000000000e+00 0.0000e+00 1.0000e+00
      -11  1    1    2    0    0 -6.1298662524e+00 -9.7010940334e+00 -8.8744709568e+00 1.4506644012e+01 0.0000000000e+00 0.0000e+00 -1.0000e+00
       11  1    1    2    0    0 +6.1298662524e+00 +9.7010940334e+00 -6.9303001824e+00 1.3405802711e+01 0.0000000000e+00 0.0000e+00 1.0000e+00
<mgrwt>
<rscale>  0 0.23006823E+02</rscale>
<asrwt>0</asrwt>
<pdfrwt beam="1">  1        2 0.93135966E-03 0.23006823E+02</pdfrwt>
<pdfrwt beam="2">  1       -2 0.33628629E-02 0.23006823E+02</pdfrwt>
<totfact> 0.27319376E+06</totfact>
</mgrwt>
</event>
<event>
 4      1 +1.6944000e+03 4.06137400e+01 7.81860800e-03 1.50374300e-01
       -2 -1    0    0    0  501 -0.0000000000e+00 +0.0000000000e+00 +9.2687344593e+00 9.2687344593e+00 0.0000000000e+00 0.0000e+00 1.0000e+00
        2 -1    0    0  501    0 +0.0000000000e+00 -0.0000000000e+00 -4.4490319812e+01 4.4490319812e+01 0.0000000000e+00 0.0000e+00 -1.0000e+00
      -13  1    1    2    0    0 +5.2038658172e+00 -1.0337108023e+01 -3.9697905314e+01 4.1350449913e+01 0.0000000000e+00 0.0000e+00 -1.0000e+00
       13  1    1    2    0    0 -5.2038658172e+00 +1.0337108023e+01 +4.4763199611e+00 1.2408604358e+01 0.0000000000e+00 0.0000e+00 1.0000e+00
<mgrwt>
<rscale>  0 0.40613740E+02</rscale>
<asrwt>0</asrwt>
<pdfrwt beam="2">  1        2 0.68446646E-02 0.40613740E+02</pdfrwt>
<pdfrwt beam="1">  1       -2 0.14259591E-02 0.40613740E+02</pdfrwt>
<totfact> 0.85140328E+05</totfact>
</mgrwt>
</event>
<event>
 5      1 +1.6944000e+03 9.12535800e+01 7.81860800e-03 1.29984400e-01
       -3 -1    0    0    0  501 -0.0000000000e+00 +0.0000000000e+00 +1.3647775193e+01 1.3647775193e+01 0.0000000000e+00 0.0000e+00 1.0000e+00
        3 -1    0    0  501    0 +0.0000000000e+00 -0.0000000000e+00 -1.5253795830e+02 1.5253795830e+02 0.0000000000e+00 0.0000e+00 -1.0000e+00
       23  2    1    2    0    0 +0.0000000000e+00 +0.0000000000e+00 -1.3889018310e+02 1.6618573349e+02 9.1253575562e+01 0.0000e+00 0.0000e+00
      -13  1    3    3    0    0 -2.5870475855e+01 -2.5986082140e+01 -1.1889323550e+02 1.2441928883e+02 0.0000000000e+00 0.0000e+00 -1.0000e+00
       13  1    3    3    0    0 +2.5870475855e+01 +2.5986082140e+01 -1.9996947606e+01 4.1766444660e+01 0.0000000000e+00 0.0000e+00 1.0000e+00
<mgrwt>
<rscale>  0 0.91253576E+02</rscale>
<asrwt>0</asrwt>
<pdfrwt beam="2">  1        3 0.23467381E-01 0.91253576E+02</pdfrwt>
<pdfrwt beam="1">  1       -3 0.20996575E-02 0.91253576E+02</pdfrwt>
<totfact> 0.30276182E+04</totfact>
</mgrwt>
</event>
<event>
 5      1 +1.6944000e+03 9.13720100e+01 7.81860800e-03 1.29956300e-01
       -3 -1    0    0    0  501 -0.0000000000e+00 +0.0000000000e+00 +2.1417864687e+02 2.1417864687e+02 0.0000000000e+00 0.0000e+00 1.0000e+00
        3 -1    0    0  501    0 +0.0000000000e+00 -0.0000000000e+00 -9.7451877316e+00 9.7451877316e+00 0.0000000000e+00 0.0000e+00 -1.0000e+00
       23  2    1    2    0    0 +0.0000000000e+00 +0.0000000000e+00 +2.0443345914e+02 2.2392383460e+02 9.1372011510e+01 0.0000e+00 0.0000e+00
      -13  1    3    3    0    0 +2.9787241402e+01 +1.4035272201e+01 +1.7982806489e+02 1.8281794643e+02 0.0000000000e+00 0.0000e+00 1.0000e+00
       13  1    3    3    0    0 -2.9787241402e+01 -1.4035272201e+01 +2.4605394252e+01 4.1105888172e+01 0.0000000000e+00 0.0000e+00 -1.0000e+00
<mgrwt>
<rscale>  0 0.91372012E+02</rscale>
<asrwt>0</asrwt>
<pdfrwt beam="2">  1        3 0.14992598E-02 0.91372012E+02</pdfrwt>
<pdfrwt beam="1">  1       -3 0.32950558E-01 0.91372012E+02</pdfrwt>
<totfact> 0.27147485E+04</totfact>
</mgrwt>
</event>
<event>
 5      1 +1.6944000e+03 9.84802300e+01 7.81860800e-03 1.28352500e-01
       -1 -1    0    0    0  501 -0.0000000000e+00 +0.0000000000e+00 +6.2510722338e+00 6.2510722338e+00 0.0000000000e+00 0.0000e+00 1.0000e+00
        1 -1    0    0  501    0 +0.0000000000e+00 -0.0000000000e+00 -3.8786767338e+02 3.8786767338e+02 0.0000000000e+00 0.0000e+00 -1.0000e+00
       23  2    1    2    0    0 +0.0000000000e+00 +0.0000000000e+00 -3.8161660114e+02 3.9411874561e+02 9.8480228339e+01 0.0000e+00 0.0000e+00
      -13  1    3    3    0    0 +4.8616929906e+01 -7.2280520152e+00 -1.7897816069e+02 1.8560450591e+02 0.0000000000e+00 0.0000e+00 1.0000e+00
       13  1    3    3    0    0 -4.8616929906e+01 +7.2280520152e+00 -2.0263844045e+02 2.0851423970e+02 0.0000000000e+00 0.0000e+00 -1.0000e+00
<mgrwt>
<rscale>  0 0.98480228E+02</rscale>
<asrwt>0</asrwt>
<pdfrwt beam="2">  1        1 0.59671945E-01 0.98480228E+02</pdfrwt>
<pdfrwt beam="1">  1       -1 0.96170349E-03 0.98480228E+02</pdfrwt>
<totfact> 0.10926973E+05</totfact>
</mgrwt>
</event>
<event>
 5      1 +1.6944000e+03 8.90204400e+01 7.81860800e-03 1.30524100e-01
        1 -1    0    0  501    0 +0.0000000000e+00 +0.0000000000e+00 +2.2848149669e+01 2.2848149669e+01 0.0000000000e+00 0.0000e+00 -1.0000e+00
       -1 -1    0    0    0  501 -0.0000000000e+00 -0.0000000000e+00 -8.6709843994e+01 8.6709843994e+01 0.0000000000e+00 0.0000e+00 1.0000e+00
       23  2    1    2    0    0 +0.0000000000e+00 +0.0000000000e+00 -6.3861694326e+01 1.0955799366e+02 8.9020435706e+01 0.0000e+00 0.0000e+00
      -11  1    3    3    0    0 +2.7776792540e+00 +2.8185636852e+01 +1.0327626949e+01 3.0146401197e+01 0.0000000000e+00 0.0000e+00 -1.0000e+00
       11  1    3    3    0    0 -2.7776792540e+00 -2.8185636852e+01 -7.4189321274e+01 7.9411592465e+01 0.0000000000e+00 0.0000e+00 1.0000e+00
<mgrwt>
<rscale>  0 0.89020436E+02</rscale>
<asrwt>0</asrwt>
<pdfrwt beam="1">  1        1 0.35151000E-02 0.89020436E+02</pdfrwt>
<pdfrwt beam="2">  1       -1 0.13339976E-01 0.89020436E+02</pdfrwt>
<totfact> 0.88768679E+04</totfact>
</mgrwt>
</event>
<event>
 4      1 +1.6944000e+03 8.61802200e+01 7.81860800e-03 1.31237500e-01
        2 -1    0    0  501    0 +0.0000000000e+00 +0.0000000000e+00 +3.4487277034e+01 3.4487277034e+01 0.0000000000e+00 0.0000e+00 -1.0000e+00
       -2 -1    0    0    0  501 -0.0000000000e+00 -0.0000000000e+00 -5.3838909801e+01 5.3838909801e+01 0.0000000000e+00 0.0000e+00 1.0000e+00
      -11  1    1    2    0    0 -1.8053533010e+01 +9.5368970244e+00 +2.9214752056e+01 3.5642449364e+01 0.0000000000e+00 0.0000e+00 -1.0000e+00
       11  1    1    2    0    0 +1.8053533010e+01 -9.5368970244e+00 -4.8566384823e+01 5.2683737470e+01 0.0000000000e+00 0.0000e+00 1.0000e+00
<mgrwt>
<rscale>  0 0.86180216E+02</rscale>
<asrwt>0</asrwt>
<pdfrwt beam="1">  1        2 0.53057349E-02 0.86180216E+02</pdfrwt>
<pdfrwt beam="2">  1       -2 0.82829092E-02 0.86180216E+02</pdfrwt>
<totfact> 0.10814045E+05</totfact>
</mgrwt>
</event>
<event>
 5      1 +1.6944000e+03 8.29277300e+01 7.81860800e-03 1.32094200e-01
        1 -1    0    0  501    0 +0.0000000000e+00 +0.0000000000e+00 +2.8609044387e+02 2.8609044387e+02 0.0000000000e+00 0.0000e+00 -1.0000e+00
       -1 -1    0    0    0  501 -0.0000000000e+00 -0.0000000000e+00 -6.0094710916e+00 6.0094710916e+00 0.0000000000e+00 0.0000e+00 1.0000e+00
       23  2    1    2    0    0 +0.0000000000e+00 +0.0000000000e+00 +2.8008097278e+02 2.9209991496e+02 8.2927733648e+01 0.0000e+00 0.0000e+00
      -13  1    3    3    0    0 -2.7063219530e+01 +3.1343128241e+01 +1.4746479045e+02 1.5316877606e+02 0.0000000000e+00 0.0000e+00 -1.0000e+00
       13  1    3    3    0    0 +2.7063219530e+01 -3.1343128241e+01 +1.3261618233e+02 1.3893113890e+02 0.0000000000e+00 0.0000e+00 1.0000e+00
<mgrwt>
<rscale>  0 0.82927734E+02</rscale>
<asrwt>0</asrwt>
<pdfrwt beam="1">  1        1 0.44013904E-01 0.82927734E+02</pdfrwt>
<pdfrwt beam="2">  1       -1 0.92453424E-03 0.82927734E+02</pdfrwt>
<totfact> 0.16326352E+05</totfact>
</mgrwt>
</event>
<event>
 4      1 +1.6944000e+03 2.56333400e+01 7.81860800e-03 1.65206800e-01
        4 -1    0    0  501    0 +0.0000000000e+00 +0.0000000000e+00 +8.2414156679e+01 8.2414156679e+01 0.0000000000e+00 0.0000e+00 1.0000e+00
       -4 -1    0    0    0  501 -0.0000000000e+00 -0.0000000000e+00 -1.9931894393e+00 1.9931894393e+00 0.0000000000e+00 0.0000e+00 -1.0000e+00
      -11  1    1    2    0    0 -6.4672483134e+00 -8.5435057004e+00 +1.7054713065e+01 2.0141500146e+01 0.0000000000e+00 0.0000e+00 -1.0000e+00
       11  1    1    2    0    0 +6.4672483134e+00 +8.5435057004e+00 +6.3366254175e+01 6.4265845972e+01 0.0000000000e+00 0.0000e+00 1.0000e+00
<mgrwt>
<rscale>  0 0.25633340E+02</rscale>
<asrwt>0</asrwt>
<pdfrwt beam="1">  1        4 0.12679098E-01 0.25633340E+02</pdfrwt>
<pdfrwt beam="2">  1       -4 0.30664459E-03 0.25633340E+02</pdfrwt>
<totfact> 0.61309056E+05</totfact>
</mgrwt>
</event>
<event>
 5      1 +1.6944000e+03 7.77625000e+01 7.81860800e-03 1.33552400e-01
       -2 -1    0    0    0  501 -0.0000000000e+00 +0.0000000000e+00 +7.8983599064e+00 7.8983599064e+00 0.0000000000e+00 0.0000e+00 -1.0000e+00
        2 -1    0    0  501    0 +0.0000000000e+00 -0.0000000000e+00 -1.9140071102e+02 1.9140071102e+02 0.0000000000e+00 0.0000e+00 1.0000e+00
       23  2    1    2    0    0 +0.0000000000e+00 +0.0000000000e+00 -1.8350235112e+02 1.9929907093e+02 7.7762502583e+01 0.0000e+00 0.0000e+00
      -11  1    3    3    0    0 -3.0409808982e+01 -6.4151111537e+00 -1.5162932206e+02 1.5478165732e+02 0.0000000000e+00 0.0000e+00 1.0000e+00
       11  1    3    3    0    0 +3.0409808982e+01 +6.4151111537e+00 -3.1873029053e+01 4.4517413609e+01 0.0000000000e+00 0.0000e+00 -1.0000e+00
<mgrwt>
<rscale>  0 0.77762503E+02</rscale>
<asrwt>0</asrwt>
<pdfrwt beam="2">  1        2 0.29446266E-01 0.77762503E+02</pdfrwt>
<pdfrwt beam="1">  1       -2 0.12151322E-02 0.77762503E+02</pdfrwt>
<totfact> 0.23281025E+05</totfact>
</mgrwt>
</event>
<event>
 5      1 +1.6944000e+03 9.11945300e+01 7.81860800e-03 1.29998400e-01
        3 -1    0    0  501    0 +0.0000000000e+00 +0.0000000000e+00 +3.8515258557e+01 3.8515258557e+01 0.0000000000e+00 0.0000e+00 -1.0000e+00
       -3 -1    0    0    0  501 -0.0000000000e+00 -0.0000000000e+00 -5.3981480067e+01 5.3981480067e+01 0.0000000000e+00 0.0000e+00 1.0000e+00
       23  2    1    2    0    0 +0.0000000000e+00 +0.0000000000e+00 -1.5466221510e+01 9.2496738624e+01 9.1194531899e+01 0.0000e+00 0.0000e+00
      -13  1    3    3    0    0 -1.2210959328e+01 +2.4824737108e+00 -5.2221035610e+01 5.3687119160e+01 0.0000000000e+00 0.0000e+00 1.0000e+00
       13  1    3    3    0    0 +1.2210959328e+01 -2.4824737108e+00 +3.6754814100e+01 3.8809619464e+01 0.0000000000e+00 0.0000e+00 -1.0000e+00
<mgrwt>
<rscale>  0 0.91194532E+02</rscale>
<asrwt>0</asrwt>
<pdfrwt beam="1">  1        3 0.59254244E-02 0.91194532E+02</pdfrwt>
<pdfrwt beam="2">  1       -3 0.83048431E-02 0.91194532E+02</pdfrwt>
<totfact> 0.35219491E+04</totfact>
</mgrwt>
</event>
<event>
 5      1 +1.6944000e+03 8.88035200e+01 7.81860800e-03 1.30577500e-01
       -3 -1    0    0    0  501 -0.0000000000e+00 +0.0000000000e+00 +1.5712368505e+01 1.5712368505e+01 0.0000000000e+00 0.0000e+00 1.0000e+00
        3 -1    0    0  501    0 +0.0000000000e+00 -0.0000000000e+00 -1.2547543049e+02 1.2547543049e+02 0.0000000000e+00 0.0000e+00 -1.0000e+00
       23  2    1    2    0    0 +0.0000000000e+00 +0.0000000000e+00 -1.0976306198e+02 1.4118779899e+02 8.8803517996e+01 0.0000e+00 0.0000e+00
      -11  1    3    3    0    0 -2.2729207721e+01 +2.1801780908e+01 -5.1207346940e+00 3.1908564026e+01 0.0000000000e+00 0.0000e+00 1.0000e+00
       11  1    3    3    0    0 +2.2729207721e+01 -2.1801780908e+01 -1.0464232729e+02 1.0927923497e+02 0.0000000000e+00 0.0000e+00 -1.0000e+00
<mgrwt>
<rscale>  0 0.88803518E+02</rscale>
<asrwt>0</asrwt>
<pdfrwt beam="2">  1        3 0.19303913E-01 0.88803518E+02</pdfrwt>
<pdfrwt beam="1">  1       -3 0.24172874E-02 0.88803518E+02</pdfrwt>
<totfact> 0.34207798E+04</totfact>
</mgrwt>
</event>
<event>
 4      1 +1.6944000e+03 2.14412200e+01 7.81860800e-03 1.71809900e-01
        2 -1    0    0  501    0 +0.0000000000e+00 +0.0000000000e+00 +5.9091916116e+00 5.9091916116e+00 0.0000000000e+00 0.0000e+00 1.0000e+00
       -2 -1    0    0    0  501 -0.0000000000e+00 -0.0000000000e+00 -1.9449619976e+01 1.9449619976e+01 0.0000000000e+00 0.0000e+00 -1.0000e+00
      -13  1    1    2    0    0 +7.2271526841e+00 -7.9127382561e+00 -6.4186308737e+00 1.2491676626e+01 0.0000000000e+00 0.0000e+00 1.0000e+00
       13  1    1    2    0    0 -7.2271526841e+00 +7.9127382561e+00 -7.1217974905e+00 1.2867134962e+01 0.0000000000e+00 0.0000e+00 -1.0000e+00
<mgrwt>
<rscale>  0 0.21441225E+02</rscale>
<asrwt>0</asrwt>
<pdfrwt beam="1">  1        2 0.90910640E-03 0.21441225E+02</pdfrwt>
<pdfrwt beam="2">  1       -2 0.29922492E-02 0.21441225E+02</pdfrwt>
<totfact> 0.32235142E+06</totfact>
</mgrwt>
</event>
<event>
 4      1 +1.6944000e+03 3.08129900e+01 7.81860800e-03 1.58927200e-01
       -4 -1    0    0    0  501 -0.0000000000e+00 +0.0000000000e+00 +3.4141432176e+00 3.4141432176e+00 0.0000000000e+00 0.0000e+00 1.0000e+00
        4 -1    0    0  501    0 +0.0000000000e+00 -0.0000000000e+00 -6.9522611193e+01 6.9522611193e+01 0.0000000000e+00 0.0000e+00 -1.0000e+00
      -13  1    1    2    0    0 -1.4893321389e+01 -1.5646760537e+00 -2.4486550728e+01 2.8702794284e+01 0.0000000000e+00 0.0000e+00 -1.0000e+00
       13  1    1    2    0    0 +1.4893321389e+01 +1.5646760537e+00 -4.1621917247e+01 4.4233960126e+01 0.0000000000e+00 0.0000e+00 1.0000e+00
<mgrwt>
<rscale>  0 0.30812994E+02</rscale>
<asrwt>0</asrwt>
<pdfrwt beam="2">  1        4 0.10695786E-01 0.30812994E+02</pdfrwt>
<pdfrwt beam="1">  1       -4 0.52525283E-03 0.30812994E+02</pdfrwt>
<totfact> 0.42332328E+05</totfact>
</mgrwt>
</event>
<event>
 5      1 +1.6944000e+03 9.15701500e+01 7.81860800e-03 1.29909300e-01
        2 -1    0    0  501    0 +0.0000000000e+00 +0.0000000000e+00 +7.0821629743e+01 7.0821629743e+01 0.0000000000e+00 0.0000e+00 -1.0000e+00
       -2 -1    0    0    0  501 -0.0000000000e+00 -0.0000000000e+00 -2.9599331510e+01 2.9599331510e+01 0.0000000000e+00 0.0000e+00 1.0000e+00
       23  2    1    2    0    0 +0.0000000000e+00 +0.0000000000e+00 +4.1222298232e+01 1.0042096125e+02 9.1570145722e+01 0.0000e+00 0.0000e+00
      -13  1    3    3    0    0 +2.2105910951e+01 -1.2575714630e+01 -2.1140394591e+01 3.3071682462e+01 0.0000000000e+00 0.0000e+00 1.0000e+00
       13  1    3    3    0    0 -2.2105910951e+01 +1.2575714630e+01 +6.2362692824e+01 6.7349278791e+01 0.0000000000e+00 0.0000e+00 -1.0000e+00
<mgrwt>
<rscale>  0 0.91570146E+02</rscale>
<asrwt>0</asrwt>
<pdfrwt beam="1">  1        2 0.10895635E-01 0.91570146E+02</pdfrwt>
<pdfrwt beam="2">  1       -2 0.45537433E-02 0.91570146E+02</pdfrwt>
<totfact> 0.10964878E+05</totfact>
</mgrwt>
</event>
<event>
 5      1 +1.6944000e+03 9.08610600e+01 7.81860800e-03 1.30078000e-01
       -2 -1    0    0    0  501 -0.0000000000e+00 +0.0000000000e+00 +3.7653886759e+01 3.7653886759e+01 0.0000000000e+00 0.0000e+00 1.0000e+00
        2 -1    0    0  501    0 +0.0000000000e+00 -0.0000000000e+00 -5.4813282240e+01 5.4813282240e+01 0.0000000000e+00 0.0000e+00 -1.0000e+00
       23  2    1    2    0    0 +0.0000000000e+00 +0.0000000000e+00 -1.7159395481e+01 9.2467168999e+01 9.0861061459e+01 0.0000e+00 0.0000e+00
      -13  1    3    3    0    0 +7.7829183829e+00 +1.1045542343e+01 -5.2721002450e+01 5.4425011930e+01 0.0000000000e+00 0.0000e+00 -1.0000e+00
       13  1    3    3    0    0 -7.7829183829e+00 -1.1045542343e+01 +3.5561606970e+01 3.8042157069e+01 0.0000000000e+00 0.0000e+00 1.0000e+00
<mgrwt>
<rscale>  0 0.90861061E+02</rscale>
<asrwt>0</asrwt>
<pdfrwt beam="2">  1        2 0.84328127E-02 0.90861061E+02</pdfrwt>
<pdfrwt beam="1">  1       -2 0.57929057E-02 0.90861061E+02</pdfrwt>
<totfact> 0.10457073E+05</totfact>
</mgrwt>
</event>
<event>
 5      1 +1.6944000e+03 9.69355900e+01 7.81860800e-03 1.28687500e-01
       -2 -1    0    0    0  501 -0.0000000000e+00 +0.0000000000e+00 +1.7803956019e+01 1.7803956019e+01 0.0000000000e+00 0.0000e+00 1.0000e+00
        2 -1    0    0  501    0 +0.0000000000e+00 -0.0000000000e+00 -1.3194410174e+02 1.3194410174e+02 0.0000000000e+00 0.0000e+00 -1.0000e+00
       23  2    1    2    0    0 +0.0000000000e+00 +0.0000000000e+00 -1.1414014572e+02 1.4974805776e+02 9.6935586535e+01 0.0000e+00 0.0000e+00
      -13  1    3    3    0    0 +3.0533476210e+01 -3.7097011294e+01 -6.6918900868e+01 8.2380948706e+01 0.0000000000e+00 0.0000e+00 1.0000e+00
       13  1    3    3    0    0 -3.0533476210e+01 +3.7097011294e+01 -4.7221244851e+01 6.7367109050e+01 0.0000000000e+00 0.0000e+00 -1.0000e+00
<mgrwt>
<rscale>  0 0.96935587E+02</rscale>
<asrwt>0</asrwt>
<pdfrwt beam="2">  1        2 0.20299093E-01 0.96935587E+02</pdfrwt>
<pdfrwt beam="1">  1       -2 0.27390701E-02 0.96935587E+02</pdfrwt>
<totfact> 0.11325220E+05</totfact>
</mgrwt>
</event>
<event>
 5      1 +1.6944000e+03 9.24158000e+01 7.81860800e-03 1.29710500e-01
        1 -1    0    0  501    0 +0.0000000000e+00 +0.0000000000e+00 +3.1143876532e+01 3.1143876532e+01 0.0000000000e+00 0.0000e+00 -1.0000e+00
       -1 -1    0    0    0  501 -0.0000000000e+00 -0.0000000000e+00 -6.8558256503e+01 6.8558256503e+01 0.0000000000e+00 0.0000e+00 1.0000e+00
       23  2    1    2    0    0 +0.0000000000e+00 +0.0000000000e+00 -3.7414379970e+01 9.9702133035e+01 9.2415796827e+01 0.0000e+00 0.0000e+00
      -11  1    3    3    0    0 -3.8619434052e+01 -2.5125126636e+01 -2.2511882471e+01 5.1278821431e+01 0.0000000000e+00 0.0000e+00 -1.0000e+00
       11  1    3    3    0    0 +3.8619434052e+01 +2.5125126636e+01 -1.4902497499e+01 4.8423311604e+01 0.0000000000e+00 0.0000e+00 1.0000e+00
<mgrwt>
<rscale>  0 0.92415797E+02</rscale>
<asrwt>0</asrwt>
<pdfrwt beam="1">  1        1 0.47913657E-02 0.92415797E+02</pdfrwt>
<pdfrwt beam="2">  1       -1 0.10547424E-01 0.92415797E+02</pdfrwt>
<totfact> 0.83892108E+04</totfact>
</mgrwt>
</event>
<event>
 5      1 +1.6944000e+03 8.77037700e+01 7.81860800e-03 1.30851000e-01
       -2 -1    0    0    0  501 -0.0000000000e+00 +0.0000000000e+00 +1.8961970339e+01 1.8961970339e+01 0.0000000000e+00 0.0000e+00 1.0000e+00
        2 -1    0    0  501    0 +0.0000000000e+00 -0.0000000000e+00 -1.0141286193e+02 1.0141286193e+02 0.0000000000e+00 0.0000e+00 -1.0000e+00
       23  2    1    2    0    0 +0.0000000000e+00 +0.0000000000e+00 -8.2450891588e+01 1.2037483227e+02 8.7703766849e+01 0.0000e+00 0.0000e+00
      -13  1    3    3    0    0 -3.3910557148e+01 -1.8212214354e+01 -1.2390288928e+01 4.0436739452e+01 0.0000000000e+00 0.0000e+00 1.0000e+00
       13  1    3    3    0    0 +3.3910557148e+01 +1.8212214354e+01 -7.0060602661e+01 7.9938092815e+01 0.0000000000e+00 0.0000e+00 -1.0000e+00
<mgrwt>
<rscale>  0 0.87703767E+02</rscale>
<asrwt>0</asrwt>
<pdfrwt beam="2">  1        2 0.15601978E-01 0.87703767E+02</pdfrwt>
<pdfrwt beam="1">  1       -2 0.29172263E-02 0.87703767E+02</pdfrwt>
<totfact> 0.13704364E+05</totfact>
</mgrwt>
</event>
<event>
 5      1 +1.6944000e+03 8.58765800e+01 7.81860800e-03 1.31315600e-01
       -3 -1    0    0    0  501 -0.0000000000e+00 +0.0000000000e+00 +6.9575699255e+00 6.9575699255e+00 0.0000000000e+00 0.0000e+00 1.0000e+00
        3 -1    0    0  501    0 +0.0000000000e+00 -0.0000000000e+00 -2.6499147316e+02 2.6499147316e+02 0.0000000000e+00 0.0000e+00 -1.0000e+00
       23  2    1    2    0    0 +0.0000000000e+00 +0.0000000000e+00 -2.5803390323e+02 2.7194904308e+02 8.5876578976e+01 0.0000e+00 0.0000e+00
      -13  1    3    3    0    0 -1.8519630681e+01 +3.2158395440e+01 -1.9741842040e+02 2.0087601109e+02 0.0000000000e+00 0.0000e+00 -1.0000e+00
       13  1    3    3    0    0 +1.8519630681e+01 -3.2158395440e+01 -6.0615482834e+01 7.1073031995e+01 0.0000000000e+00 0.0000e+00 1.0000e+00
<mgrwt>
<rscale>  0 0.85876579E+02</rscale>
<asrwt>0</asrwt>
<pdfrwt beam="2">  1        3 0.40767925E-01 0.85876579E+02</pdfrwt>
<pdfrwt beam="1">  1       -3 0.10703952E-02 0.85876579E+02</pdfrwt>
<totfact> 0.29529454E+04</totfact>
</mgrwt>
</event>
<event>
 4      1 +1.6944000e+03 2.29389200e+01 7.81860800e-03 1.69250200e-01
       -2 -1    0    0    0  501 -0.0000000000e+00 +0.0000000000e+00 +1.8985886699e+00 1.8985886699e+00 0.0000000000e+00 0.0000e+00 1.0000e+00
        2 -1    0    0  501    0 +0.0000000000e+00 -0.0000000000e+00 -6.9287524241e+01 6.9287524241e+01 0.0000000000e+00 0.0000e+00 -1.0000e+00
      -11  1    1    2    0    0 -1.0615386455e+01 -2.4129867136e+00 -4.4900555595e+01 4.6201394213e+01 0.0000000000e+00 0.0000e+00 -1.0000e+00
       11  1    1    2    0    0 +1.0615386455e+01 +2.4129867136e+00 -2.2488379976e+01 2.4984718698e+01 0.0000000000e+00 0.0000e+00 1.0000e+00
<mgrwt>
<rscale>  0 0.22938920E+02</rscale>
<asrwt>0</asrwt>
<pdfrwt beam="2">  1        2 0.10659621E-01 0.22938920E+02</pdfrwt>
<pdfrwt beam="1">  1       -2 0.29209050E-03 0.22938920E+02</pdfrwt>
<totfact> 0.35961274E+06</totfact>
</mgrwt>
</event>
<event>
 5      1 +1.6944000e+03 9.23203000e+01 7.81860800e-03 1.29732800e-01
       -2 -1    0    0    0  501 -0.0000000000e+00 +0.0000000000e+00 +8.7130439143e+00 8.7130439143e+00 0.0000000000e+00 0.0000e+00 1.0000e+00
        2 -1    0    0  501    0 +0.0000000000e+00 -0.0000000000e+00 -2.4454823667e+02 2.4454823667e+02 0.0000000000e+00 0.0000e+00 -1.0000e+00
       23  2    1    2    0    0 +0.0000000000e+00 +0.0000000000e+00 -2.3583519276e+02 2.5326128059e+02 9.2320301674e+01 0.0000e+00 0.0000e+00
      -13  1    3    3    0    0 +2.7636692249e+01 +3.6681590371e+01 -1.3061807545e+02 1.3845724057e+02 0.0000000000e+00 0.0000e+00 1.0000e+00
       13  1    3    3    0    0 -2.7636692249e+01 -3.6681590371e+01 -1.0521711730e+02 1.1480404002e+02 0.0000000000e+00 0.0000e+00 -1.0000e+00
<mgrwt>
<rscale>  0 0.92320302E+02</rscale>
<asrwt>0</asrwt>
<pdfrwt beam="2">  1        2 0.37622799E-01 0.92320302E+02</pdfrwt>
<pdfrwt beam="1">  1       -2 0.13404685E-02 0.92320302E+02</pdfrwt>
<totfact> 0.16102156E+05</totfact>
</mgrwt>
</event>
<event>
 5      1 +1.6944000e+03 9.17724700e+01 7.81860800e-03 1.29861500e-01
       -2 -1    0    0    0  501 -0.0000000000e+00 +0.0000000000e+00 +2.1977509361e+01 2.1977509361e+01 0.0000000000e+00 0.0000e+00 -1.0000e+00
        2 -1    0    0  501    0 +0.0000000000e+00 -0.0000000000e+00 -9.5804601485e+01 9.5804601485e+01 0.0000000000e+00 0.0000e+00 1.0000e+00
       23  2    1    2    0    0 +0.0000000000e+00 +0.0000000000e+00 -7.3827092124e+01 1.1778211085e+02 9.1772469203e+01 0.0000e+00 0.0000e+00
      -13  1    3    3    0    0 -4.1597023659e+01 -7.8913304254e+00 -5.9618052397e+01 7.3122483853e+01 0.0000000000e+00 0.0000e+00 1.0000e+00
       13  1    3    3    0    0 +4.1597023659e+01 +7.8913304254e+00 -1.4209039727e+01 4.4659626993e+01 0.0000000000e+00 0.0000e+00 -1.0000e+00
<mgrwt>
<rscale>  0 0.91772469E+02</rscale>
<asrwt>0</asrwt>
<pdfrwt beam="2">  1        2 0.14739169E-01 0.91772469E+02</pdfrwt>
<pdfrwt beam="1">  1       -2 0.33811553E-02 0.91772469E+02</pdfrwt>
<totfact> 0.11893688E+05</totfact>
</mgrwt>
</event>
<event>
 5      1 +1.6944000e+03 8.61135500e+01 7.81860800e-03 1.31254600e-01
       -3 -1    0    0    0  501 -0.0000000000e+00 +0.0000000000e+00 +2.1839962683e+01 2.1839962683e+01 0.0000000000e+00 0.0000e+00 1.0000e+00
        3 -1    0    0  501    0 +0.0000000000e+00 -0.0000000000e+00 -8.4885024497e+01 8.4885024497e+01 0.0000000000e+00 0.0000e+00 -1.0000e+00
       23  2    1    2    0    0 +0.0000000000e+00 +0.0000000000e+00 -6.3045061814e+01 1.0672498718e+02 8.6113547536e+01 0.0000e+00 0.0000e+00
      -11  1    3    3    0    0 -2.2590325696e+01 -7.2486747072e+00 -7.6053388565e+01 7.9667961014e+01 0.0000000000e+00 0.0000e+00 -1.0000e+00
       11  1    3    3    0    0 +2.2590325696e+01 +7.2486747072e+00 +1.3008326750e+01 2.7057026165e+01 0.0000000000e+00 0.0000e+00 1.0000e+00
<mgrwt>
<rscale>  0 0.86113548E+02</rscale>
<asrwt>0</asrwt>
<pdfrwt beam="2">  1        3 0.13059235E-01 0.86113548E+02</pdfrwt>
<pdfrwt beam="1">  1       -3 0.33599942E-02 0.86113548E+02</pdfrwt>
<totfact> 0.39895136E+04</totfact>
</mgrwt>
</event>
<event>
 5      1 +1.6944000e+03 9.34102500e+01 7.81860800e-03 1.29479700e-01
        2 -1    0    0  501    0 +0.0000000000e+00 +0.0000000000e+00 +4.4345499405e+02 4.4345499405e+02 0.0000000000e+00 0.0000e+00 1.0000e+00
       -2 -1    0    0    0  501 -0.0000000000e+00 -0.0000000000e+00 -4.9190303526e+00 4.9190303526e+00 0.0000000000e+00 0.0000e+00 -1.0000e+00
       23  2    1    2    0    0 +0.0000000000e+00 +0.0000000000e+00 +4.3853596370e+02 4.4837402440e+02 9.3410247312e+01 0.0000e+00 0.0000e+00
      -13  1    3    3    0    0 +4.4019270466e+01 +1.5270695657e+01 +2.3480581510e+02 2.3938391993e+02 0.0000000000e+00 0.0000e+00 -1.0000e+00
       13  1    3    3    0    0 -4.4019270466e+01 -1.5270695657e+01 +2.0373014860e+02 2.0899010447e+02 0.0000000000e+00 0.0000e+00 1.0000e+00
<mgrwt>
<rscale>  0 0.93410247E+02</rscale>
<asrwt>0</asrwt>
<pdfrwt beam="1">  1        2 0.68223814E-01 0.93410247E+02</pdfrwt>
<pdfrwt beam="2">  1       -2 0.75677425E-03 0.93410247E+02</pdfrwt>
<totfact> 0.19411093E+05</totfact>
</mgrwt>
</event>
<event>
 5      1 +1.6944000e+03 9.06584800e+01 7.81860800e-03 1.30126500e-01
        2 -1    0    0  501    0 +0.0000000000e+00 +0.0000000000e+00 +3.2836020770e+01 3.2836020770e+01 0.0000000000e+00 0.0000e+00 -1.0000e+00
       -2 -1    0    0    0  501 -0.0000000000e+00 -0.0000000000e+00 -6.2575787542e+01 6.2575787542e+01 0.0000000000e+00 0.0000e+00 1.0000e+00
       23  2    1    2    0    0 +0.0000000000e+00 +0.0000000000e+00 -2.9739766771e+01 9.5411808312e+01 9.0658476922e+01 0.0000e+00 0.0000e+00
      -11  1    3    3    0    0 -1.3782205028e+01 +3.7579091833e+01 -3.7259785884e+01 5.4684814734e+01 0.0000000000e+00 0.0000e+00 1.0000e+00
       11  1    3    3    0    0 +1.3782205028e+01 -3.7579091833e+01 +7.5200191127e+00 4.0726993578e+01 0.0000000000e+00 0.0000e+00 -1.0000e+00
<mgrwt>
<rscale>  0 0.90658477E+02</rscale>
<asrwt>0</asrwt>
<pdfrwt beam="1">  1        2 0.50516955E-02 0.90658477E+02</pdfrwt>
<pdfrwt beam="2">  1       -2 0.96270443E-02 0.90658477E+02</pdfrwt>
<totfact> 0.92141003E+04</totfact>
</mgrwt>
</event>
<event>
 4      1 +1.6944000e+03 1.30094200e+02 7.81860800e-03 1.22731600e-01
        2 -1    0    0  501    0 +0.0000000000e+00 +0.0000000000e+00 +9.0137751801e+01 9.0137751801e+01 0.0000000000e+00 0.0000e+00 -1.0000e+00
       -2 -1    0    0    0  501 -0.0000000000e+00 -0.0000000000e+00 -4.6940656710e+01 4.6940656710e+01 0.0000000000e+00 0.0000e+00 1.0000e+00
      -13  1    1    2    0    0 -3.9121521560e+01 +1.0147142751e+01 -3.2104988332e+01 5.1615775021e+01 0.0000000000e+00 0.0000e+00 1.0000e+00
       13  1    1    2    0    0 +3.9121521560e+01 -1.0147142751e+01 +7.5302083424e+01 8.5462633490e+01 0.0000000000e+00 0.0000e+00 -1.0000e+00
<mgrwt>
<rscale>  0 0.13009420E+03</rscale>
<asrwt>0</asrwt>
<pdfrwt beam="1">  1        2 0.13867346E-01 0.13009420E+03</pdfrwt>
<pdfrwt beam="2">  1       -2 0.72216395E-02 0.13009420E+03</pdfrwt>
<totfact> 0.43178276E+04</totfact>
</mgrwt>
</event>
<event>
 5      1 +1.6944000e+03 9.14381700e+01 7.81860800e-03 1.29940600e-01
        2 -1    0    0  501    0 +0.0000000000e+00 +0.0000000000e+00 +5.6883819904e+01 5.6883819904e+01 0.0000000000e+00 0.0000e+00 1.0000e+00
       -2 -1    0    0    0  501 -0.0000000000e+00 -0.0000000000e+00 -3.6745681476e+01 3.6745681476e+01 0.0000000000e+00 0.0000e+00 -1.0000e+00
       23  2    1    2    0    0 +0.0000000000e+00 +0.0000000000e+00 +2.0138138428e+01 9.3629501380e+01 9.1438169871e+01 0.0000e+00 0.0000e+00
      -11  1    3    3    0    0 -3.1531763919e+01 +3.2078550600e+01 +1.6907321932e+00 4.5012710647e+01 0.0000000000e+00 0.0000e+00 -1.0000e+00
       11  1    3    3    0    0 +3.1531763919e+01 -3.2078550600e+01 +1.8447406235e+01 4.8616790733e+01 0.0000000000e+00 0.0000e+00 1.0000e+00
<mgrwt>
<rscale>  0 0.91438170E+02</rscale>
<asrwt>0</asrwt>
<pdfrwt beam="1">  1        2 0.87513569E-02 0.91438170E+02</pdfrwt>
<pdfrwt beam="2">  1       -2 0.56531818E-02 0.91438170E+02</pdfrwt>
<totfact> 0.10372521E+05</totfact>
</mgrwt>
</event>
<event>
 5      1 +1.6944000e+03 9.19535900e+01 7.81860800e-03 1.29818900e-01
        1 -1    0    0  501    0 +0.0000000000e+00 +0.0000000000e+00 +1.1049770758e+02 1.1049770758e+02 0.0000000000e+00 0.0000e+00 -1.0000e+00
       -1 -1    0    0    0  501 -0.0000000000e+00 -0.0000000000e+00 -1.9130400971e+01 1.9130400971e+01 0.0000000000e+00 0.0000e+00 1.0000e+00
       23  2    1    2    0    0 +0.0000000000e+00 +0.0000000000e+00 +9.1367306608e+01 1.2962810855e+02 9.1953585083e+01 0.0000e+00 0.0000e+00
      -11  1    3    3    0    0 -3.4153927656e+01 +2.5455211106e+01 +7.0076440351e+01 8.2007109687e+01 0.0000000000e+00 0.0000e+00 -1.0000e+00
       11  1    3    3    0    0 +3.4153927656e+01 -2.5455211106e+01 +2.1290866256e+01 4.7620998864e+01 0.0000000000e+00 0.0000e+00 1.0000e+00
<mgrwt>
<rscale>  0 0.91953585E+02</rscale>
<asrwt>0</asrwt>
<pdfrwt beam="1">  1        1 0.16999647E-01 0.91953585E+02</pdfrwt>
<pdfrwt beam="2">  1       -1 0.29431387E-02 0.91953585E+02</pdfrwt>
<totfact> 0.10379646E+05</totfact>
</mgrwt>
</event>
<event>
 4      1 +1.6944000e+03 1.03550700e+02 7.81860800e-03 1.27300200e-01
       -2 -1    0    0    0  501 -0.0000000000e+00 +0.0000000000e+00 +2.9966048057e+01 2.9966048057e+01 0.0000000000e+00 0.0000e+00 -1.0000e+00
        2 -1    0    0  501    0 +0.0000000000e+00 -0.0000000000e+00 -8.9457414871e+01 8.9457414871e+01 0.0000000000e+00 0.0000e+00 1.0000e+00
      -13  1    1    2    0    0 -1.7204372470e+01 +7.3856692702e+00 +2.5925234778e+01 3.1978998436e+01 0.0000000000e+00 0.0000e+00 -1.0000e+00
       13  1    1    2    0    0 +1.7204372470e+01 -7.3856692702e+00 -8.5416601593e+01 8.7444464492e+01 0.0000000000e+00 0.0000e+00 1.0000e+00
<mgrwt>
<rscale>  0 0.10355067E+03</rscale>
<asrwt>0</asrwt>
<pdfrwt beam="2">  1        2 0.13762679E-01 0.10355067E+03</pdfrwt>
<pdfrwt beam="1">  1       -2 0.46101613E-02 0.10355067E+03</pdfrwt>
<totfact> 0.83132812E+04</totfact>
</mgrwt>
</event>
<event>
 5      1 +1.6944000e+03 9.54455700e+01 7.81860800e-03 1.29017600e-01
        2 -1    0    0  501    0 +0.0000000000e+00 +0.0000000000e+00 +5.0432530690e+01 5.0432530690e+01 0.0000000000e+00 0.0000e+00 -1.0000e+00
       -2 -1    0    0    0  501 -0.0000000000e+00 -0.0000000000e+00 -4.5158629887e+01 4.5158629887e+01 0.0000000000e+00 0.0000e+00 1.0000e+00
       23  2    1    2    0    0 +0.0000000000e+00 +0.0000000000e+00 +5.2739008033e+00 9.5591160577e+01 9.5445565380e+01 0.0000e+00 0.0000e+00
      -11  1    3    3    0    0 +7.8981010800e+00 -2.7848496857e+01 +4.0636166188e+01 4.9892051274e+01 0.0000000000e+00 0.0000e+00 -1.0000e+00
       11  1    3    3    0    0 -7.8981010800e+00 +2.7848496857e+01 -3.5362265385e+01 4.5699109302e+01 0.0000000000e+00 0.0000e+00 1.0000e+00
<mgrwt>
<rscale>  0 0.95445565E+02</rscale>
<asrwt>0</asrwt>
<pdfrwt beam="1">  1        2 0.77588509E-02 0.95445565E+02</pdfrwt>
<pdfrwt beam="2">  1       -2 0.69474815E-02 0.95445565E+02</pdfrwt>
<totfact> 0.88854623E+04</totfact>
</mgrwt>
</event>
<event>
 5      1 +1.6944000e+03 9.20698800e+01 7.81860800e-03 1.29791500e-01
        1 -1    0    0  501    0 +0.0000000000e+00 +0.0000000000e+00 +8.7367294289e+01 8.7367294289e+01 0.0000000000e+00 0.0000e+00 -1.0000e+00
       -1 -1    0    0    0  501 -0.0000000000e+00 -0.0000000000e+00 -2.4256398382e+01 2.4256398382e+01 0.0000000000e+00 0.0000e+00 1.0000e+00
       23  2    1    2    0    0 +0.0000000000e+00 +0.0000000000e+00 +6.3110895907e+01 1.1162369267e+02 9.2069884237e+01 0.0000e+00 0.0000e+00
      -11  1    3    3    0    0 +1.6063026332e+01 -3.8318868462e+01 +5.5585646732e+01 6.9398275322e+01 0.0000000000e+00 0.0000e+00 -1.0000e+00
       11  1    3    3    0    0 -1.6063026332e+01 +3.8318868462e+01 +7.5252491745e+00 4.2225417348e+01 0.0000000000e+00 0.0000e+00 1.0000e+00
<mgrwt>
<rscale>  0 0.92069884E+02</rscale>
<asrwt>0</asrwt>
<pdfrwt beam="1">  1        1 0.13441122E-01 0.92069884E+02</pdfrwt>
<pdfrwt beam="2">  1       -1 0.37317536E-02 0.92069884E+02</pdfrwt>
<totfact> 0.99475054E+04</totfact>
</mgrwt>
</event>
<event>
 5      1 +1.6944000e+03 9.06033400e+01 7.81860800e-03 1.30139700e-01
       -3 -1    0    0    0  501 -0.0000000000e+00 +0.0000000000e+00 +2.5217895983e+01 2.5217895983e+01 0.0000000000e+00 0.0000e+00 1.0000e+00
        3 -1    0    0  501    0 +0.0000000000e+00 -0.0000000000e+00 -8.1380360958e+01 8.1380360958e+01 0.0000000000e+00 0.0000e+00 -1.0000e+00
       23  2    1    2    0    0 +0.0000000000e+00 +0.0000000000e+00 -5.6162464974e+01 1.0659825694e+02 9.0603343817e+01 0.0000e+00 0.0000e+00
      -13  1    3    3    0    0 +1.5790713931e+01 -9.5622393536e+00 +2.0591872521e+01 2.7655167362e+01 0.0000000000e+00 0.0000e+00 1.0000e+00
       13  1    3    3    0    0 -1.5790713931e+01 +9.5622393536e+00 -7.6754337495e+01 7.8943089579e+01 0.0000000000e+00 0.0000e+00 -1.0000e+00
<mgrwt>
<rscale>  0 0.90603344E+02</rscale>
<asrwt>0</asrwt>
<pdfrwt beam="2">  1        3 0.12520056E-01 0.90603344E+02</pdfrwt>
<pdfrwt beam="1">  1       -3 0.38796763E-02 0.90603344E+02</pdfrwt>
<totfact> 0.34779583E+04</totfact>
</mgrwt>
</event>
<event>
 4      1 +1.6944000e+03 6.37735400e+01 7.81860800e-03 1.38264500e-01
       -1 -1    0    0    0  501 -0.0000000000e+00 +0.0000000000e+00 +8.5949848120e+00 8.5949848120e+00 0.0000000000e+00 0.0000e+00 1.0000e+00
        1 -1    0    0  501    0 +0.0000000000e+00 -0.0000000000e+00 -1.1829758992e+02 1.1829758992e+02 0.0000000000e+00 0.0000e+00 -1.0000e+00
      -13  1    1    2    0    0 +1.8472725201e+01 -2.4277611635e+01 -7.3316447699e+01 7.9409983668e+01 0.0000000000e+00 0.0000e+00 -1.0000e+00
       13  1    1    2    0    0 -1.8472725201e+01 +2.4277611635e+01 -3.6386157405e+01 4.7482591060e+01 0.0000000000e+00 0.0000e+00 1.0000e+00
<mgrwt>
<rscale>  0 0.63773536E+02</rscale>
<asrwt>0</asrwt>
<pdfrwt beam="2">  1        1 0.18199627E-01 0.63773536E+02</pdfrwt>
<pdfrwt beam="1">  1       -1 0.13223055E-02 0.63773536E+02</pdfrwt>
<totfact> 0.27744990E+05</totfact>
</mgrwt>
</event>
<event>
 5      1 +1.6944000e+03 5.64237000e+01 7.81860800e-03 1.41348400e-01
        3 -1    0    0  501    0 +0.0000000000e+00 +0.0000000000e+00 +4.0142946888e+00 4.0142946888e+00 0.0000000000e+00 0.0000e+00 1.0000e+00
       -3 -1    0    0    0  501 -0.0000000000e+00 -0.0000000000e+00 -1.9826854446e+02 1.9826854446e+02 0.0000000000e+00 0.0000e+00 -1.0000e+00
       23  2    1    2    0    0 +0.0000000000e+00 +0.0000000000e+00 -1.9425424977e+02 2.0228283915e+02 5.6423695908e+01 0.0000e+00 0.0000e+00
      -13  1    3    3    0    0 +2.4493672154e+01 -3.5156154576e+00 -4.8548602515e+01 5.4490974793e+01 0.0000000000e+00 0.0000e+00 1.0000e+00
       13  1    3    3    0    0 -2.4493672154e+01 +3.5156154576e+00 -1.4570564725e+02 1.4779186436e+02 0.0000000000e+00 0.0000e+00 -1.0000e+00
<mgrwt>
<rscale>  0 0.56423696E+02</rscale>
<asrwt>0</asrwt>
<pdfrwt beam="1">  1        3 0.61758386E-03 0.56423696E+02</pdfrwt>
<pdfrwt beam="2">  1       -3 0.30502850E-01 0.56423696E+02</pdfrwt>
<totfact> 0.99609514E+04</totfact>
</mgrwt>
</event>
<event>
 5      1 +1.6944000e+03 9.29222900e+01 7.81860800e-03 1.29592500e-01
       -2 -1    0    0    0  501 -0.0000000000e+00 +0.0000000000e+00 +3.4635169848e+01 3.4635169848e+01 0.0000000000e+00 0.0000e+00 1.0000e+00
        2 -1    0    0  501    0 +0.0000000000e+00 -0.0000000000e+00 -6.2325031873e+01 6.2325031873e+01 0.0000000000e+00 0.0000e+00 -1.0000e+00
       23  2    1    2    0    0 +0.0000000000e+00 +0.0000000000e+00 -2.7689862024e+01 9.6960201721e+01 9.2922291507e+01 0.0000e+00 0.0000e+00
      -11  1    3    3    0    0 -4.2894252288e+01 -1.4675786906e+01 -3.2374318686e+00 4.5450814798e+01 0.0000000000e+00 0.0000e+00 1.0000e+00
       11  1    3    3    0    0 +4.2894252288e+01 +1.4675786906e+01 -2.4452430156e+01 5.1509386923e+01 0.0000000000e+00 0.0000e+00 -1.0000e+00
<mgrwt>
<rscale>  0 0.92922292E+02</rscale>
<asrwt>0</asrwt>
<pdfrwt beam="2">  1        2 0.95884664E-02 0.92922292E+02</pdfrwt>
<pdfrwt beam="1">  1       -2 0.53284877E-02 0.92922292E+02</pdfrwt>
<totfact> 0.10157681E+05</totfact>
</mgrwt>
</event>
<event>
 5      1 +1.6944000e+03 9.25086400e+01 7.81860800e-03 1.29688800e-01
       -1 -1    0    0    0  501 -0.0000000000e+00 +0.0000000000e+00 +1.0723626831e+01 1.0723626831e+01 0.0000000000e+00 0.0000e+00 1.0000e+00
        1 -1    0    0  501    0 +0.0000000000e+00 -0.0000000000e+00 -1.9950920052e+02 1.9950920052e+02 0.0000000000e+00 0.0000e+00 -1.0000e+00
       23  2    1    2    0    0 +0.0000000000e+00 +0.0000000000e+00 -1.8878557369e+02 2.1023282735e+02 9.2508642099e+01 0.0000e+00 0.0000e+00
      -13  1    3    3    0    0 -1.1439209830e+01 +4.4667549129e+01 -1.0271697472e+02 1.1259139560e+02 0.0000000000e+00 0.0000e+00 -1.0000e+00
       13  1    3    3    0    0 +1.1439209830e+01 -4.4667549129e+01 -8.6068598967e+01 9.7641431753e+01 0.0000000000e+00 0.0000e+00 1.0000e+00
<mgrwt>
<rscale>  0 0.92508642E+02</rscale>
<asrwt>0</asrwt>
<pdfrwt beam="2">  1        1 0.30693724E-01 0.92508642E+02</pdfrwt>
<pdfrwt beam="1">  1       -1 0.16497887E-02 0.92508642E+02</pdfrwt>
<totfact> 0.11382824E+05</totfact>
</mgrwt>
</event>
<event>
 5      1 +1.6944000e+03 9.12905900e+01 7.81860800e-03 1.29975600e-01
        2 -1    0    0  501    0 +0.0000000000e+00 +0.0000000000e+00 +2.5500605172e+02 2.5500605172e+02 0.0000000000e+00 0.0000e+00 1.0000e+00
       -2 -1    0    0    0  501 -0.0000000000e+00 -0.0000000000e+00 -8.1703674053e+00 8.1703674053e+00 0.0000000000e+00 0.0000e+00 -1.0000e+00
       23  2    1    2    0    0 +0.0000000000e+00 +0.0000000000e+00 +2.4683568431e+02 2.6317641912e+02 9.1290593888e+01 0.0000e+00 0.0000e+00
      -13  1    3    3    0    0 +4.0503661396e+01 +8.3162887607e+00 +1.7915340503e+02 1.8386312784e+02 0.0000000000e+00 0.0000e+00 -1.0000e+00
       13  1    3    3    0    0 -4.0503661396e+01 -8.3162887607e+00 +6.7682279280e+01 7.9313291281e+01 0.0000000000e+00 0.0000e+00 1.0000e+00
<mgrwt>
<rscale>  0 0.91290594E+02</rscale>
<asrwt>0</asrwt>
<pdfrwt beam="1">  1        2 0.39231694E-01 0.91290594E+02</pdfrwt>
<pdfrwt beam="2">  1       -2 0.12569798E-02 0.91290594E+02</pdfrwt>
<totfact> 0.16853335E+05</totfact>
</mgrwt>
</event>
<event>
 5      1 +1.6944000e+03 9.17174400e+01 7.81860800e-03 1.29874500e-01
       -1 -1    0    0    0  501 -0.0000000000e+00 +0.0000000000e+00 +1.1032617486e+01 1.1032617486e+01 0.0000000000e+00 0.0000e+00 1.0000e+00
        1 -1    0    0  501    0 +0.0000000000e+00 -0.0000000000e+00 -1.9061862375e+02 1.9061862375e+02 0.0000000000e+00 0.0000e+00 -1.0000e+00
       23  2    1    2    0    0 +0.0000000000e+00 +0.0000000000e+00 -1.7958600626e+02 2.0165124124e+02 9.1717443520e+01 0.0000e+00 0.0000e+00
      -11  1    3    3    0    0 +2.3163587842e+01 +2.3791730934e+01 -1.5933401906e+02 1.6275726679e+02 0.0000000000e+00 0.0000e+00 -1.0000e+00
       11  1    3    3    0    0 -2.3163587842e+01 -2.3791730934e+01 -2.0251987203e+01 3.8893974446e+01 0.0000000000e+00 0.0000e+00 1.0000e+00
<mgrwt>
<rscale>  0 0.91717444E+02</rscale>
<asrwt>0</asrwt>
<pdfrwt beam="2">  1        1 0.29325944E-01 0.91717444E+02</pdfrwt>
<pdfrwt beam="1">  1       -1 0.16973256E-02 0.91717444E+02</pdfrwt>
<totfact> 0.11546189E+05</totfact>
</mgrwt>
</event>
<event>
 5      1 +1.6944000e+03 8.69119500e+01 7.81860800e-03 1.31050700e-01
       -2 -1    0    0    0  501 -0.0000000000e+00 +0.0000000000e+00 +1.1458161760e+01 1.1458161760e+01 0.0000000000e+00 0.0000e+00 1.0000e+00
        2 -1    0    0  501    0 +0.0000000000e+00 -0.0000000000e+00 -1.6481017564e+02 1.6481017564e+02 0.0000000000e+00 0.0000e+00 -1.0000e+00
       23  2    1    2    0    0 +0.0000000000e+00 +0.0000000000e+00 -1.5335201388e+02 1.7626833740e+02 8.6911947444e+01 0.0000e+00 0.0000e+00
      -13  1    3    3    0    0 +2.2744781352e+01 +3.4170155088e+01 -1.0560770421e+02 1.1330450902e+02 0.0000000000e+00 0.0000e+00 -1.0000e+00
       13  1    3    3    0    0 -2.2744781352e+01 -3.4170155088e+01 -4.7744309671e+01 6.2963828373e+01 0.0000000000e+00 0.0000e+00 1.0000e+00
<mgrwt>
<rscale>  0 0.86911947E+02</rscale>
<asrwt>0</asrwt>
<pdfrwt beam="2">  1        2 0.25355410E-01 0.86911947E+02</pdfrwt>
<pdfrwt beam="1">  1       -2 0.17627942E-02 0.86911947E+02</pdfrwt>
<totfact> 0.16432141E+05</totfact>
</mgrwt>
</event>
<event>
 4      1 +1.6944000e+03 5.59923600e+01 7.81860800e-03 1.41546300e-01
        4 -1    0    0  501    0 +0.0000000000e+00 +0.0000000000e+00 +7.4661495651e+01 7.4661495651e+01 0.0000000000e+00 0.0000e+00 1.0000e+00
       -4 -1    0    0    0  501 -0.0000000000e+00 -0.0000000000e+00 -1.0497863695e+01 1.0497863695e+01 0.0000000000e+00 0.0000e+00 -1.0000e+00
      -13  1    1    2    0    0 -1.2711139828e+01 +2.2190853120e+01 +1.4755506283e+01 2.9525108020e+01 0.0000000000e+00 0.0000e+00 -1.0000e+00
       13  1    1    2    0    0 +1.2711139828e+01 -2.2190853120e+01 +4.9408125674e+01 5.5634251325e+01 0.0000000000e+00 0.0000e+00 1.0000e+00
<mgrwt>
<rscale>  0 0.55992364E+02</rscale>
<asrwt>0</asrwt>
<pdfrwt beam="1">  1        4 0.11486384E-01 0.55992364E+02</pdfrwt>
<pdfrwt beam="2">  1       -4 0.16150560E-02 0.55992364E+02</pdfrwt>
<totfact> 0.98214558E+04</totfact>
</mgrwt>
</event>
<event>
 5      1 +1.6944000e+03 8.55119500e+01 7.81860800e-03 1.31409900e-01
        3 -1    0    0  501    0 +0.0000000000e+00 +0.0000000000e+00 +3.8802291593e+01 3.8802291593e+01 0.0000000000e+00 0.0000e+00 -1.0000e+00
       -3 -1    0    0    0  501 -0.0000000000e+00 -0.0000000000e+00 -4.7112510382e+01 4.7112510382e+01 0.0000000000e+00 0.0000e+00 1.0000e+00
       23  2    1    2    0    0 +0.0000000000e+00 +0.0000000000e+00 -8.3102187892e+00 8.5914801975e+01 8.5511949236e+01 0.0000e+00 0.0000e+00
      -13  1    3    3    0    0 +1.8938506755e+01 +1.8929596371e+01 +2.9334741118e+01 3.9718052487e+01 0.0000000000e+00 0.0000e+00 -1.0000e+00
       13  1    3    3    0    0 -1.8938506755e+01 -1.8929596371e+01 -3.7644959907e+01 4.6196749488e+01 0.0000000000e+00 0.0000e+00 1.0000e+00
<mgrwt>
<rscale>  0 0.85511949E+02</rscale>
<asrwt>0</asrwt>
<pdfrwt beam="1">  1        3 0.59695833E-02 0.85511949E+02</pdfrwt>
<pdfrwt beam="2">  1       -3 0.72480785E-02 0.85511949E+02</pdfrwt>
<totfact> 0.42542066E+04</totfact>
</mgrwt>
</event>
<event>
 5      1 +1.6944000e+03 9.08377000e+01 7.81860800e-03 1.30083600e-01
        2 -1    0    0  501    0 +0.0000000000e+00 +0.0000000000e+00 +1.5811455747e+01 1.5811455747e+01 0.0000000000e+00 0.0000e+00 -1.0000e+00
       -2 -1    0    0    0  501 -0.0000000000e+00 -0.0000000000e+00 -1.3046691344e+02 1.3046691344e+02 0.0000000000e+00 0.0000e+00 1.0000e+00
       23  2    1    2    0    0 +0.0000000000e+00 +0.0000000000e+00 -1.1465545770e+02 1.4627836919e+02 9.0837697645e+01 0.0000e+00 0.0000e+00
      -13  1    3    3    0    0 +3.3234627458e+01 +2.9001379337e+01 -7.4764775962e+01 8.6806636788e+01 0.0000000000e+00 0.0000e+00 1.0000e+00
       13  1    3    3    0    0 -3.3234627458e+01 -2.9001379337e+01 -3.9890681735e+01 5.9471732403e+01 0.0000000000e+00 0.0000e+00 -1.0000e+00
<mgrwt>
<rscale>  0 0.90837698E+02</rscale>
<asrwt>0</asrwt>
<pdfrwt beam="1">  1        2 0.24325317E-02 0.90837698E+02</pdfrwt>
<pdfrwt beam="2">  1       -2 0.20071832E-01 0.90837698E+02</pdfrwt>
<totfact> 0.74050632E+04</totfact>
</mgrwt>
</event>
<event>
 5      1 +1.6944000e+03 9.34498100e+01 7.81860800e-03 1.29470600e-01
        4 -1    0    0  501    0 +0.0000000000e+00 +0.0000000000e+00 +3.8674207766e+01 3.8674207766e+01 0.0000000000e+00 0.0000e+00 -1.0000e+00
       -4 -1    0    0    0  501 -0.0000000000e+00 -0.0000000000e+00 -5.6451491225e+01 5.6451491225e+01 0.0000000000e+00 0.0000e+00 1.0000e+00
       23  2    1    2    0    0 +0.0000000000e+00 +0.0000000000e+00 -1.7777283459e+01 9.5125698991e+01 9.3449808996e+01 0.0000e+00 0.0000e+00
      -13  1    3    3    0    0 +3.1391310720e+01 +2.9541638396e-01 +2.6340023992e+01 4.0979245033e+01 0.0000000000e+00 0.0000e+00 -1.0000e+00
       13  1    3    3    0    0 -3.1391310720e+01 -2.9541638396e-01 -4.4117307451e+01 5.4146453959e+01 0.0000000000e+00 0.0000e+00 1.0000e+00
<mgrwt>
<rscale>  0 0.93449809E+02</rscale>
<asrwt>0</asrwt>
<pdfrwt beam="1">  1        4 0.59498782E-02 0.93449809E+02</pdfrwt>
<pdfrwt beam="2">  1       -4 0.86848447E-02 0.93449809E+02</pdfrwt>
<totfact> 0.25029075E+04</totfact>
</mgrwt>
</event>
<event>
 5      1 +1.6944000e+03 9.24968800e+01 7.81860800e-03 1.29691500e-01
       -2 -1    0    0    0  501 -0.0000000000e+00 +0.0000000000e+00 +3.5584531185e+01 3.5584531185e+01 0.0000000000e+00 0.0000e+00 1.0000e+00
        2 -1    0    0  501    0 +0.0000000000e+00 -0.0000000000e+00 -6.0108085276e+01 6.0108085276e+01 0.0000000000e+00 0.0000e+00 -1.0000e+00
       23  2    1    2    0    0 +0.0000000000e+00 +0.0000000000e+00 -2.4523554091e+01 9.5692616462e+01 9.2496876380e+01 0.0000e+00 0.0000e+00
      -11  1    3    3    0    0 -2.3491930369e+01 -2.5544674682e+01 +1.9364271114e+01 3.9741366268e+01 0.0000000000e+00 0.0000e+00 1.0000e+00
       11  1    3    3    0    0 +2.3491930369e+01 +2.5544674682e+01 -4.3887825205e+01 5.5951250194e+01 0.0000000000e+00 0.0000e+00 -1.0000e+00
<mgrwt>
<rscale>  0 0.92496876E+02</rscale>
<asrwt>0</asrwt>
<pdfrwt beam="2">  1        2 0.92473977E-02 0.92496876E+02</pdfrwt>
<pdfrwt beam="1">  1       -2 0.54745433E-02 0.92496876E+02</pdfrwt>
<totfact> 0.10189520E+05</totfact>
</mgrwt>
</event>
<event>
 5      1 +1.6944000e+03 9.17696900e+01 7.81860800e-03 1.29862200e-01
        1 -1    0    0  501    0 +0.0000000000e+00 +0.0000000000e+00 +2.8098835492e+02 2.8098835492e+02 0.0000000000e+00 0.0000e+00 -1.0000e+00
       -1 -1    0    0    0  501 -0.0000000000e+00 -0.0000000000e+00 -7.4929041891e+00 7.4929041891e+00 0.0000000000e+00 0.0000e+00 1.0000e+00
       23  2    1    2    0    0 +0.0000000000e+00 +0.0000000000e+00 +2.7349545073e+02 2.8848125911e+02 9.1769686099e+01 0.0000e+00 0.0000e+00
      -13  1    3    3    0    0 +3.8197012609e+01 -2.4038791041e+01 +1.1072206645e+02 1.1956693208e+02 0.0000000000e+00 0.0000e+00 1.0000e+00
       13  1    3    3    0    0 -3.8197012609e+01 +2.4038791041e+01 +1.6277338428e+02 1.6891432703e+02 0.0000000000e+00 0.0000e+00 -1.0000e+00
<mgrwt>
<rscale>  0 0.91769686E+02</rscale>
<asrwt>0</asrwt>
<pdfrwt beam="1">  1        1 0.43228970E-01 0.91769686E+02</pdfrwt>
<pdfrwt beam="2">  1       -1 0.11527547E-02 0.91769686E+02</pdfrwt>
<totfact> 0.12434924E+05</totfact>
</mgrwt>
</event>
<event>
 4      1 +1.6944000e+03 2.16584000e+01 7.81860800e-03 1.71422800e-01
       -1 -1    0    0    0  501 -0.0000000000e+00 +0.0000000000e+00 +2.9471325030e+01 2.9471325030e+01 0.0000000000e+00 0.0000e+00 1.0000e+00
        1 -1    0    0  501    0 +0.0000000000e+00 -0.0000000000e+00 -3.9791772414e+00 3.9791772414e+00 0.0000000000e+00 0.0000e+00 -1.0000e+00
      -11  1    1    2    0    0 +6.4823138051e+00 -7.9328607257e+00 +7.3248374730e+00 1.2593804650e+01 0.0000000000e+00 0.0000e+00 -1.0000e+00
       11  1    1    2    0    0 -6.4823138051e+00 +7.9328607257e+00 +1.8167310315e+01 2.0856697621e+01 0.0000000000e+00 0.0000e+00 1.0000e+00
<mgrwt>
<rscale>  0 0.21658405E+02</rscale>
<asrwt>0</asrwt>
<pdfrwt beam="2">  1        1 0.61218113E-03 0.21658405E+02</pdfrwt>
<pdfrwt beam="1">  1       -1 0.45340499E-02 0.21658405E+02</pdfrwt>
<totfact> 0.30620155E+06</totfact>
</mgrwt>
</event>
<event>
 5      1 +1.6944000e+03 8.92165900e+01 7.81860800e-03 1.30476000e-01
        3 -1    0    0  501    0 +0.0000000000e+00 +0.0000000000e+00 +9.5334501143e+00 9.5334501143e+00 0.0000000000e+00 0.0000e+00 -1.0000e+00
       -3 -1    0    0    0  501 -0.0000000000e+00 -0.0000000000e+00 -2.0872821161e+02 2.0872821161e+02 0.0000000000e+00 0.0000e+00 1.0000e+00
       23  2    1    2    0    0 +0.0000000000e+00 +0.0000000000e+00 -1.9919476150e+02 2.1826166172e+02 8.9216590225e+01 0.0000e+00 0.0000e+00
      -11  1    3    3    0    0 -3.5813963913e+01 -2.6591493934e+01 -9.8642234334e+01 1.0825912412e+02 0.0000000000e+00 0.0000e+00 1.0000e+00
       11  1    3    3    0    0 +3.5813963913e+01 +2.6591493934e+01 -1.0055252716e+02 1.1000253760e+02 0.0000000000e+00 0.0000e+00 -1.0000e+00
<mgrwt>
<rscale>  0 0.89216590E+02</rscale>
<asrwt>0</asrwt>
<pdfrwt beam="1">  1        3 0.14666848E-02 0.89216590E+02</pdfrwt>
<pdfrwt beam="2">  1       -3 0.32112028E-01 0.89216590E+02</pdfrwt>
<totfact> 0.29238124E+04</totfact>
</mgrwt>
</event>
<event>
 5      1 +1.6944000e+03 9.27369100e+01 7.81860800e-03 1.29635600e-01
        3 -1    0    0  501    0 +0.0000000000e+00 +0.0000000000e+00 +1.3924521213e+01 1.3924521213e+01 0.0000000000e+00 0.0000e+00 -1.0000e+00
       -3 -1    0    0    0  501 -0.0000000000e+00 -0.0000000000e+00 -1.5440629926e+02 1.5440629926e+02 0.0000000000e+00 0.0000e+00 1.0000e+00
       23  2    1    2    0    0 +0.0000000000e+00 +0.0000000000e+00 -1.4048177805e+02 1.6833082048e+02 9.2736913675e+01 0.0000e+00 0.0000e+00
      -11  1    3    3    0    0 +3.0253575515e+01 +3.5136245152e+01 -7.1051091383e+01 8.4841570833e+01 0.0000000000e+00 0.0000e+00 -1.0000e+00
       11  1    3    3    0    0 -3.0253575515e+01 -3.5136245152e+01 -6.9430686667e+01 8.3489249642e+01 0.0000000000e+00 0.0000e+00 1.0000e+00
<mgrwt>
<rscale>  0 0.92736914E+02</rscale>
<asrwt>0</asrwt>
<pdfrwt beam="1">  1        3 0.21422341E-02 0.92736914E+02</pdfrwt>
<pdfrwt beam="2">  1       -3 0.23754814E-01 0.92736914E+02</pdfrwt>
<totfact> 0.28863668E+04</totfact>
</mgrwt>
</event>
<event>
 5      1 +1.6944000e+03 9.04142400e+01 7.81860800e-03 1.30185200e-01
       -1 -1    0    0    0  501 -0.0000000000e+00 +0.0000000000e+00 +3.1618029640e+01 3.1618029640e+01 0.0000000000e+00 0.0000e+00 1.0000e+00
        1 -1    0    0  501    0 +0.0000000000e+00 -0.0000000000e+00 -6.4636660620e+01 6.4636660620e+01 0.0000000000e+00 0.0000e+00 -1.0000e+00
       23  2    1    2    0    0 +0.0000000000e+00 +0.0000000000e+00 -3.3018630980e+01 9.6254690260e+01 9.0414243376e+01 0.0000e+00 0.0000e+00
      -13  1    3    3    0    0 -6.0304657113e+00 +3.5402559755e+01 +1.2723041759e+01 3.8099652827e+01 0.0000000000e+00 0.0000e+00 1.0000e+00
       13  1    3    3    0    0 +6.0304657113e+00 -3.5402559755e+01 -4.5741672739e+01 5.8155037433e+01 0.0000000000e+00 0.0000e+00 -1.0000e+00
<mgrwt>
<rscale>  0 0.90414243E+02</rscale>
<asrwt>0</asrwt>
<pdfrwt beam="2">  1        1 0.99441016E-02 0.90414243E+02</pdfrwt>
<pdfrwt beam="1">  1       -1 0.48643123E-02 0.90414243E+02</pdfrwt>
<totfact> 0.99755361E+04</totfact>
</mgrwt>
</event>
<event>
 4      1 +1.6944000e+03 3.92276900e+01 7.81860800e-03 1.51397300e-01
       -2 -1    0    0    0  501 -0.0000000000e+00 +0.0000000000e+00 +7.6938409984e+00 7.6938409984e+00 0.0000000000e+00 0.0000e+00 1.0000e+00
        2 -1    0    0  501    0 +0.0000000000e+00 -0.0000000000e+00 -5.0001419592e+01 5.0001419592e+01 0.0000000000e+00 0.0000e+00 -1.0000e+00
      -13  1    1    2    0    0 -6.2909701696e-01 -1.6774752157e+01 -6.2331820358e+00 1.7906441055e+01 0.0000000000e+00 0.0000e+00 1.0000e+00
       13  1    1    2    0    0 +6.2909701696e-01 +1.6774752157e+01 -3.6074396557e+01 3.9788819535e+01 0.0000000000e+00 0.0000e+00 -1.0000e+00
<mgrwt>
<rscale>  0 0.39227693E+02</rscale>
<asrwt>0</asrwt>
<pdfrwt beam="2">  1        2 0.76925265E-02 0.39227693E+02</pdfrwt>
<pdfrwt beam="1">  1       -2 0.11836678E-02 0.39227693E+02</pdfrwt>
<totfact> 0.94704459E+05</totfact>
</mgrwt>
</event>
<event>
 4      1 +1.6944000e+03 2.50394700e+01 7.81860800e-03 1.66043600e-01
       -2 -1    0    0    0  501 -0.0000000000e+00 +0.0000000000e+00 +1.2432205183e+01 1.2432205183e+01 0.0000000000e+00 0.0000e+00 -1.0000e+00
        2 -1    0    0  501    0 +0.0000000000e+00 -0.0000000000e+00 -1.2607882092e+01 1.2607882092e+01 0.0000000000e+00 0.0000e+00 1.0000e+00
      -13  1    1    2    0    0 +3.5531136590e+00 -1.1753611435e+01 +2.3559439825e+00 1.2502898484e+01 0.0000000000e+00 0.0000e+00 -1.0000e+00
       13  1    1    2    0    0 -3.5531136590e+00 +1.1753611435e+01 -2.5316208909e+00 1.2537188791e+01 0.0000000000e+00 0.0000e+00 1.0000e+00
<mgrwt>
<rscale>  0 0.25039471E+02</rscale>
<asrwt>0</asrwt>
<pdfrwt beam="2">  1        2 0.19396742E-02 0.25039471E+02</pdfrwt>
<pdfrwt beam="1">  1       -2 0.19126470E-02 0.25039471E+02</pdfrwt>
<totfact> 0.23809616E+06</totfact>
</mgrwt>
</event>
<event>
 5      1 +1.6944000e+03 9.10353400e+01 7.81860800e-03 1.30036400e-01
       -1 -1    0    0    0  501 -0.0000000000e+00 +0.0000000000e+00 +1.8529929025e+01 1.8529929025e+01 0.0000000000e+00 0.0000e+00 1.0000e+00
        1 -1    0    0  501    0 +0.0000000000e+00 -0.0000000000e+00 -1.1181144867e+02 1.1181144867e+02 0.0000000000e+00 0.0000e+00 -1.0000e+00
       23  2    1    2    0    0 +0.0000000000e+00 +0.0000000000e+00 -9.3281519643e+01 1.3034137769e+02 9.1035338370e+01 0.0000e+00 0.0000e+00
      -13  1    3    3    0    0 -2.3654257853e+01 -3.5688762603e+01 -6.8758963183e+01 8.1000041412e+01 0.0000000000e+00 0.0000e+00 -1.0000e+00
       13  1    3    3    0    0 +2.3654257853e+01 +3.5688762603e+01 -2.4522556460e+01 4.9341336282e+01 0.0000000000e+00 0.0000e+00 1.0000e+00
<mgrwt>
<rscale>  0 0.91035338E+02</rscale>
<asrwt>0</asrwt>
<pdfrwt beam="2">  1        1 0.17201761E-01 0.91035338E+02</pdfrwt>
<pdfrwt beam="1">  1       -1 0.28507583E-02 0.91035338E+02</pdfrwt>
<totfact> 0.10688597E+05</totfact>
</mgrwt>
</event>
<event>
 4      1 +1.6944000e+03 4.07383400e+01 7.81860800e-03 1.50284700e-01
        2 -1    0    0  501    0 +0.0000000000e+00 +0.0000000000e+00 +9.3458958553e+00 9.3458958553e+00 0.0000000000e+00 0.0000e+00 -1.0000e+00
       -2 -1    0    0    0  501 -0.0000000000e+00 -0.0000000000e+00 -4.4394143472e+01 4.4394143472e+01 0.0000000000e+00 0.0000e+00 1.0000e+00
      -13  1    1    2    0    0 +1.2560805123e+01 +7.0447193773e+00 +1.4781216536e+00 1.4477110902e+01 0.0000000000e+00 0.0000e+00 -1.0000e+00
       13  1    1    2    0    0 -1.2560805123e+01 -7.0447193773e+00 -3.6526369270e+01 3.9262928425e+01 0.0000000000e+00 0.0000e+00 1.0000e+00
<mgrwt>
<rscale>  0 0.40738338E+02</rscale>
<asrwt>0</asrwt>
<pdfrwt beam="1">  1        2 0.14378301E-02 0.40738338E+02</pdfrwt>
<pdfrwt beam="2">  1       -2 0.68298682E-02 0.40738338E+02</pdfrwt>
<totfact> 0.67734858E+05</totfact>
</mgrwt>
</event>
<event>
 5      1 +1.6944000e+03 8.93461700e+01 7.81860800e-03 1.30444300e-01
       -1 -1    0    0    0  501 -0.0000000000e+00 +0.0000000000e+00 +2.5815119216e+01 2.5815119216e+01 0.0000000000e+00 0.0000e+00 1.0000e+00
        1 -1    0    0  501    0 +0.0000000000e+00 -0.0000000000e+00 -7.7306809445e+01 7.7306809445e+01 0.0000000000e+00 0.0000e+00 -1.0000e+00
       23  2    1    2    0    0 +0.0000000000e+00 +0.0000000000e+00 -5.1491690228e+01 1.0312192866e+02 8.9346169521e+01 0.0000e+00 0.0000e+00
      -13  1    3    3    0    0 -4.1402217438e+01 -1.2537974802e+01 -3.8615907797e+01 5.7987349964e+01 0.0000000000e+00 0.0000e+00 1.0000e+00
       13  1    3    3    0    0 +4.1402217438e+01 +1.2537974802e+01 -1.2875782432e+01 4.5134578697e+01 0.0000000000e+00 0.0000e+00 -1.0000e+00
<mgrwt>
<rscale>  0 0.89346170E+02</rscale>
<asrwt>0</asrwt>
<pdfrwt beam="2">  1        1 0.11893355E-01 0.89346170E+02</pdfrwt>
<pdfrwt beam="1">  1       -1 0.39715568E-02 0.89346170E+02</pdfrwt>
<totfact> 0.10593315E+05</totfact>
</mgrwt>
</event>
<event>
 4      1 +1.6944000e+03 4.55745000e+01 7.81860800e-03 1.47078700e-01
        1 -1    0    0  501    0 +0.0000000000e+00 +0.0000000000e+00 +3.4869454757e+01 3.4869454757e+01 0.0000000000e+00 0.0000e+00 -1.0000e+00
       -1 -1    0    0    0  501 -0.0000000000e+00 -0.0000000000e+00 -1.4891509007e+01 1.4891509007e+01 0.0000000000e+00 0.0000e+00 1.0000e+00
      -11  1    1    2    0    0 -3.5032385156e+00 -1.5168322546e+01 +2.8158126338e+01 3.2175002220e+01 0.0000000000e+00 0.0000e+00 -1.0000e+00
       11  1    1    2    0    0 +3.5032385156e+00 +1.5168322546e+01 -8.1801805885e+00 1.7585961544e+01 0.0000000000e+00 0.0000e+00 1.0000e+00
<mgrwt>
<rscale>  0 0.45574502E+02</rscale>
<asrwt>0</asrwt>
<pdfrwt beam="1">  1        1 0.53645315E-02 0.45574502E+02</pdfrwt>
<pdfrwt beam="2">  1       -1 0.22910014E-02 0.45574502E+02</pdfrwt>
<totfact> 0.57119457E+05</totfact>
</mgrwt>
</event>
<event>
 5      1 +1.6944000e+03 8.74935700e+01 7.81860800e-03 1.30903700e-01
        2 -1    0    0  501    0 +0.0000000000e+00 +0.0000000000e+00 +1.0294328065e+01 1.0294328065e+01 0.0000000000e+00 0.0000e+00 -1.0000e+00
       -2 -1    0    0    0  501 -0.0000000000e+00 -0.0000000000e+00 -1.8590638698e+02 1.8590638698e+02 0.0000000000e+00 0.0000e+00 1.0000e+00
       23  2    1    2    0    0 +0.0000000000e+00 +0.0000000000e+00 -1.7561205891e+02 1.9620071504e+02 8.7493573179e+01 0.0000e+00 0.0000e+00
      -13  1    3    3    0    0 -7.5594225653e+00 -2.8538856507e+01 -1.5413501122e+01 3.3304462420e+01 0.0000000000e+00 0.0000e+00 -1.0000e+00
       13  1    3    3    0    0 +7.5594225653e+00 +2.8538856507e+01 -1.6019855779e+02 1.6289625262e+02 0.0000000000e+00 0.0000e+00 1.0000e+00
<mgrwt>
<rscale>  0 0.87493573E+02</rscale>
<asrwt>0</asrwt>
<pdfrwt beam="1">  1        2 0.15837427E-02 0.87493573E+02</pdfrwt>
<pdfrwt beam="2">  1       -2 0.28600983E-01 0.87493573E+02</pdfrwt>
<totfact> 0.71390287E+04</totfact>
</mgrwt>
</event>
<event>
 5      1 +1.6944000e+03 8.85109400e+01 7.81860800e-03 1.30649800e-01
        1 -1    0    0  501    0 +0.0000000000e+00 +0.0000000000e+00 +1.5078452628e+01 1.5078452628e+01 0.0000000000e+00 0.0000e+00 -1.0000e+00
       -1 -1    0    0    0  501 -0.0000000000e+00 -0.0000000000e+00 -1.2989043893e+02 1.2989043893e+02 0.0000000000e+00 0.0000e+00 1.0000e+00
       23  2    1    2    0    0 +0.0000000000e+00 +0.0000000000e+00 -1.1481198630e+02 1.4496889156e+02 8.8510944640e+01 0.0000e+00 0.0000e+00
      -11  1    3    3    0    0 -4.4198832729e+01 -1.9989506133e+00 -5.9055454826e+01 7.3790781016e+01 0.0000000000e+00 0.0000e+00 -1.0000e+00
       11  1    3    3    0    0 +4.4198832729e+01 +1.9989506133e+00 -5.5756531477e+01 7.1178110543e+01 0.0000000000e+00 0.0000e+00 1.0000e+00
<mgrwt>
<rscale>  0 0.88510945E+02</rscale>
<asrwt>0</asrwt>
<pdfrwt beam="1">  1        1 0.23197619E-02 0.88510945E+02</pdfrwt>
<pdfrwt beam="2">  1       -1 0.19983145E-01 0.88510945E+02</pdfrwt>
<totfact> 0.83397536E+04</totfact>
</mgrwt>
</event>
<event>
 5      1 +1.6944000e+03 8.50537900e+01 7.81860800e-03 1.31529200e-01
        2 -1    0    0  501    0 +0.0000000000e+00 +0.0000000000e+00 +6.1016768050e+01 6.1016768050e+01 0.0000000000e+00 0.0000e+00 -1.0000e+00
       -2 -1    0    0    0  501 -0.0000000000e+00 -0.0000000000e+00 -2.9639996476e+01 2.9639996476e+01 0.0000000000e+00 0.0000e+00 1.0000e+00
       23  2    1    2    0    0 +0.0000000000e+00 +0.0000000000e+00 +3.1376771574e+01 9.0656764526e+01 8.5053789804e+01 0.0000e+00 0.0000e+00
      -13  1    3    3    0    0 +1.5209612391e+01 +1.9417167174e+01 +5.2614141707e+01 5.8108575939e+01 0.0000000000e+00 0.0000e+00 -1.0000e+00
       13  1    3    3    0    0 -1.5209612391e+01 -1.9417167174e+01 -2.1237370133e+01 3.2548188587e+01 0.0000000000e+00 0.0000e+00 1.0000e+00
<mgrwt>
<rscale>  0 0.85053790E+02</rscale>
<asrwt>0</asrwt>
<pdfrwt beam="1">  1        2 0.93871950E-02 0.85053790E+02</pdfrwt>
<pdfrwt beam="2">  1       -2 0.45599995E-02 0.85053790E+02</pdfrwt>
<totfact> 0.12943337E+05</totfact>
</mgrwt>
</event>
<event>
 5      1 +1.6944000e+03 9.58628800e+01 7.81860800e-03 1.28924400e-01
        1 -1    0    0  501    0 +0.0000000000e+00 +0.0000000000e+00 +5.5133323994e+01 5.5133323994e+01 0.0000000000e+00 0.0000e+00 -1.0000e+00
       -1 -1    0    0    0  501 -0.0000000000e+00 -0.0000000000e+00 -4.1670316932e+01 4.1670316932e+01 0.0000000000e+00 0.0000e+00 1.0000e+00
       23  2    1    2    0    0 +0.0000000000e+00 +0.0000000000e+00 +1.3463007063e+01 9.6803640926e+01 9.5862883001e+01 0.0000e+00 0.0000e+00
      -11  1    3    3    0    0 -3.3824940458e+01 +1.3719706951e+00 -2.7533990177e+01 4.3636332519e+01 0.0000000000e+00 0.0000e+00 -1.0000e+00
       11  1    3    3    0    0 +3.3824940458e+01 -1.3719706951e+00 +4.0996997240e+01 5.3167308407e+01 0.0000000000e+00 0.0000e+00 1.0000e+00
<mgrwt>
<rscale>  0 0.95862883E+02</rscale>
<asrwt>0</asrwt>
<pdfrwt beam="1">  1        1 0.84820499E-02 0.95862883E+02</pdfrwt>
<pdfrwt beam="2">  1       -1 0.64108180E-02 0.95862883E+02</pdfrwt>
<totfact> 0.82706054E+04</totfact>
</mgrwt>
</event>
<event>
 5      1 +1.6944000e+03 8.88649300e+01 7.81860800e-03 1.30562400e-01
        2 -1    0    0  501    0 +0.0000000000e+00 +0.0000000000e+00 +3.4796337414e+01 3.4796337414e+01 0.0000000000e+00 0.0000e+00 1.0000e+00
       -2 -1    0    0    0  501 -0.0000000000e+00 -0.0000000000e+00 -5.6737124276e+01 5.6737124276e+01 0.0000000000e+00 0.0000e+00 -1.0000e+00
       23  2    1    2    0    0 +0.0000000000e+00 +0.0000000000e+00 -2.1940786862e+01 9.1533461690e+01 8.8864933921e+01 0.0000e+00 0.0000e+00
      -13  1    3    3    0    0 +5.8173751592e+00 -4.2076922303e+01 +2.4569693963e+00 4.2548160276e+01 0.0000000000e+00 0.0000e+00 1.0000e+00
       13  1    3    3    0    0 -5.8173751592e+00 +4.2076922303e+01 -2.4397756258e+01 4.8985301414e+01 0.0000000000e+00 0.0000e+00 -1.0000e+00
<mgrwt>
<rscale>  0 0.88864934E+02</rscale>
<asrwt>0</asrwt>
<pdfrwt beam="1">  1        2 0.53532826E-02 0.88864934E+02</pdfrwt>
<pdfrwt beam="2">  1       -2 0.87287884E-02 0.88864934E+02</pdfrwt>
<totfact> 0.99157287E+04</totfact>
</mgrwt>
</event>
<event>
 5      1 +1.6944000e+03 9.01314600e+01 7.81860800e-03 1.30253400e-01
       -1 -1    0    0    0  501 -0.0000000000e+00 +0.0000000000e+00 +9.1904952393e+00 9.1904952393e+00 0.0000000000e+00 0.0000e+00 1.0000e+00
        1 -1    0    0  501    0 +0.0000000000e+00 -0.0000000000e+00 -2.2098049067e+02 2.2098049067e+02 0.0000000000e+00 0.0000e+00 -1.0000e+00
       23  2    1    2    0    0 +0.0000000000e+00 +0.0000000000e+00 -2.1178999543e+02 2.3017098591e+02 9.0131462819e+01 0.0000e+00 0.0000e+00
      -13  1    3    3    0    0 +2.9852323884e+00 -4.2956793469e+01 -1.3984345125e+02 1.4632289149e+02 0.0000000000e+00 0.0000e+00 -1.0000e+00
       13  1    3    3    0    0 -2.9852323884e+00 +4.2956793469e+01 -7.1946544179e+01 8.3848094414e+01 0.0000000000e+00 0.0000e+00 1.0000e+00
<mgrwt>
<rscale>  0 0.90131463E+02</rscale>
<asrwt>0</asrwt>
<pdfrwt beam="2">  1        1 0.33996993E-01 0.90131463E+02</pdfrwt>
<pdfrwt beam="1">  1       -1 0.14139226E-02 0.90131463E+02</pdfrwt>
<totfact> 0.12450877E+05</totfact>
</mgrwt>
</event>
<event>
 4      1 +1.6944000e+03 4.38552300e+01 7.81860800e-03 1.48161700e-01
        1 -1    0    0  501    0 +0.0000000000e+00 +0.0000000000e+00 +3.4179202655e+01 3.4179202655e+01 0.0000000000e+00 0.0000e+00 1.0000e+00
       -1 -1    0    0    0  501 -0.0000000000e+00 -0.0000000000e+00 -1.4067628915e+01 1.4067628915e+01 0.0000000000e+00 0.0000e+00 -1.0000e+00
      -13  1    1    2    0    0 -7.0374747375e+00 -1.0333143571e+01 -9.7626049389e+00 1.5862167630e+01 0.0000000000e+00 0.0000e+00 -1.0000e+00
       13  1    1    2    0    0 +7.0374747375e+00 +1.0333143571e+01 +2.9874178679e+01 3.2384663940e+01 0.0000000000e+00 0.0000e+00 1.0000e+00
<mgrwt>
<rscale>  0 0.43855232E+02</rscale>
<asrwt>0</asrwt>
<pdfrwt beam="1">  1        1 0.52583388E-02 0.43855232E+02</pdfrwt>
<pdfrwt beam="2">  1       -1 0.21642506E-02 0.43855232E+02</pdfrwt>
<totfact> 0.62863808E+05</totfact>
</mgrwt>
</event>
<event>
 5      1 +1.6944000e+03 9.09887300e+01 7.81860800e-03 1.30047500e-01
        1 -1    0    0  501    0 +0.0000000000e+00 +0.0000000000e+00 +4.3689995211e+01 4.3689995211e+01 0.0000000000e+00 0.0000e+00 -1.0000e+00
       -1 -1    0    0    0  501 -0.0000000000e+00 -0.0000000000e+00 -4.7373254450e+01 4.7373254450e+01 0.0000000000e+00 0.0000e+00 1.0000e+00
       23  2    1    2    0    0 +0.0000000000e+00 +0.0000000000e+00 -3.6832592385e+00 9.1063249661e+01 9.0988730292e+01 0.0000e+00 0.0000e+00
      -11  1    3    3    0    0 -2.1219418007e+01 +3.5082966087e+01 +1.7888954022e+01 4.4733576718e+01 0.0000000000e+00 0.0000e+00 -1.0000e+00
       11  1    3    3    0    0 +2.1219418007e+01 -3.5082966087e+01 -2.1572213261e+01 4.6329672943e+01 0.0000000000e+00 0.0000e+00 1.0000e+00
<mgrwt>
<rscale>  0 0.90988730E+02</rscale>
<asrwt>0</asrwt>
<pdfrwt beam="1">  1        1 0.67215378E-02 0.90988730E+02</pdfrwt>
<pdfrwt beam="2">  1       -1 0.72881929E-02 0.90988730E+02</pdfrwt>
<totfact> 0.92417594E+04</totfact>
</mgrwt>
</event>
<event>
 5      1 +1.6944000e+03 1.02588600e+02 7.81860800e-03 1.27494500e-01
        1 -1    0    0  501    0 +0.0000000000e+00 +0.0000000000e+00 +2.8519888121e+01 2.8519888121e+01 0.0000000000e+00 0.0000e+00 -1.0000e+00
       -1 -1    0    0    0  501 -0.0000000000e+00 -0.0000000000e+00 -9.2255144650e+01 9.2255144650e+01 0.0000000000e+00 0.0000e+00 1.0000e+00
       23  2    1    2    0    0 +0.0000000000e+00 +0.0000000000e+00 -6.3735256529e+01 1.2077503277e+02 1.0258862323e+02 0.0000e+00 0.0000e+00
      -11  1    3    3    0    0 +2.4246708838e+01 -2.9892507737e+01 -7.1784746281e+01 8.1452530389e+01 0.0000000000e+00 0.0000e+00 1.0000e+00
       11  1    3    3    0    0 -2.4246708838e+01 +2.9892507737e+01 +8.0494897514e+00 3.9322502381e+01 0.0000000000e+00 0.0000e+00 -1.0000e+00
<mgrwt>
<rscale>  0 0.10258862E+03</rscale>
<asrwt>0</asrwt>
<pdfrwt beam="1">  1        1 0.43876751E-02 0.10258862E+03</pdfrwt>
<pdfrwt beam="2">  1       -1 0.14193099E-01 0.10258862E+03</pdfrwt>
<totfact> 0.60950616E+04</totfact>
</mgrwt>
</event>
<event>
 5      1 +1.6944000e+03 9.09007600e+01 7.81860800e-03 1.30068500e-01
        4 -1    0    0  501    0 +0.0000000000e+00 +0.0000000000e+00 +1.5607628172e+02 1.5607628172e+02 0.0000000000e+00 0.0000e+00 -1.0000e+00
       -4 -1    0    0    0  501 -0.0000000000e+00 -0.0000000000e+00 -1.3235432944e+01 1.3235432944e+01 0.0000000000e+00 0.0000e+00 1.0000e+00
       23  2    1    2    0    0 +0.0000000000e+00 +0.0000000000e+00 +1.4284084877e+02 1.6931171466e+02 9.0900762613e+01 0.0000e+00 0.0000e+00
      -11  1    3    3    0    0 -2.6398708357e+01 +3.5744488093e+01 +8.9205755756e+01 9.9660559360e+01 0.0000000000e+00 0.0000e+00 1.0000e+00
       11  1    3    3    0    0 +2.6398708357e+01 -3.5744488093e+01 +5.3635093017e+01 6.9651155302e+01 0.0000000000e+00 0.0000e+00 -1.0000e+00
<mgrwt>
<rscale>  0 0.90900763E+02</rscale>
<asrwt>0</asrwt>
<pdfrwt beam="1">  1        4 0.24011734E-01 0.90900763E+02</pdfrwt>
<pdfrwt beam="2">  1       -4 0.20362206E-02 0.90900763E+02</pdfrwt>
<totfact> 0.22925490E+04</totfact>
</mgrwt>
</event>
<event>
 5      1 +1.6944000e+03 9.08679500e+01 7.81860800e-03 1.30076300e-01
       -2 -1    0    0    0  501 -0.0000000000e+00 +0.0000000000e+00 +4.4033431304e+01 4.4033431304e+01 0.0000000000e+00 0.0000e+00 1.0000e+00
        2 -1    0    0  501    0 +0.0000000000e+00 -0.0000000000e+00 -4.6879068120e+01 4.6879068120e+01 0.0000000000e+00 0.0000e+00 -1.0000e+00
       23  2    1    2    0    0 +0.0000000000e+00 +0.0000000000e+00 -2.8456368165e+00 9.0912499424e+01 9.0867953112e+01 0.0000e+00 0.0000e+00
      -11  1    3    3    0    0 +3.9126867072e+01 -2.0805523167e+01 +8.6053035772e+00 4.5142361157e+01 0.0000000000e+00 0.0000e+00 1.0000e+00
       11  1    3    3    0    0 -3.9126867072e+01 +2.0805523167e+01 -1.1450940394e+01 4.5770138268e+01 0.0000000000e+00 0.0000e+00 -1.0000e+00
<mgrwt>
<rscale>  0 0.90867953E+02</rscale>
<asrwt>0</asrwt>
<pdfrwt beam="2">  1        2 0.72121644E-02 0.90867953E+02</pdfrwt>
<pdfrwt beam="1">  1       -2 0.67743740E-02 0.90867953E+02</pdfrwt>
<totfact> 0.10036331E+05</totfact>
</mgrwt>
</event>
<event>
 5      1 +1.6944000e+03 9.09463700e+01 7.81860800e-03 1.30057600e-01
        4 -1    0    0  501    0 +0.0000000000e+00 +0.0000000000e+00 +2.5760036856e+01 2.5760036856e+01 0.0000000000e+00 0.0000e+00 -1.0000e+00
       -4 -1    0    0    0  501 -0.0000000000e+00 -0.0000000000e+00 -8.0272037659e+01 8.0272037659e+01 0.0000000000e+00 0.0000e+00 1.0000e+00
       23  2    1    2    0    0 +0.0000000000e+00 +0.0000000000e+00 -5.4512000803e+01 1.0603207451e+02 9.0946372079e+01 0.0000e+00 0.0000e+00
      -11  1    3    3    0    0 +2.9777457516e+01 +2.5514861366e+01 -5.4099123508e+01 6.6816317550e+01 0.0000000000e+00 0.0000e+00 1.0000e+00
       11  1    3    3    0    0 -2.9777457516e+01 -2.5514861366e+01 -4.1287729479e-01 3.9215756964e+01 0.0000000000e+00 0.0000e+00 -1.0000e+00
<mgrwt>
<rscale>  0 0.90946372E+02</rscale>
<asrwt>0</asrwt>
<pdfrwt beam="1">  1        4 0.39630827E-02 0.90946372E+02</pdfrwt>
<pdfrwt beam="2">  1       -4 0.12349544E-01 0.90946372E+02</pdfrwt>
<totfact> 0.26269320E+04</totfact>
</mgrwt>
</event>
<event>
 5      1 +1.6944000e+03 9.12347900e+01 7.81860800e-03 1.29988900e-01
        1 -1    0    0  501    0 +0.0000000000e+00 +0.0000000000e+00 +3.7053385481e+02 3.7053385481e+02 0.0000000000e+00 0.0000e+00 1.0000e+00
       -1 -1    0    0    0  501 -0.0000000000e+00 -0.0000000000e+00 -5.6160773274e+00 5.6160773274e+00 0.0000000000e+00 0.0000e+00 -1.0000e+00
       23  2    1    2    0    0 +0.0000000000e+00 +0.0000000000e+00 +3.6491777749e+02 3.7614993214e+02 9.1234791195e+01 0.0000e+00 0.0000e+00
      -11  1    3    3    0    0 -3.5405176630e+01 +2.8755855329e+01 +1.7948288692e+02 1.8518783017e+02 0.0000000000e+00 0.0000e+00 1.0000e+00
       11  1    3    3    0    0 +3.5405176630e+01 -2.8755855329e+01 +1.8543489057e+02 1.9096210197e+02 0.0000000000e+00 0.0000e+00 -1.0000e+00
<mgrwt>
<rscale>  0 0.91234791E+02</rscale>
<asrwt>0</asrwt>
<pdfrwt beam="1">  1        1 0.57005189E-01 0.91234791E+02</pdfrwt>
<pdfrwt beam="2">  1       -1 0.86401219E-03 0.91234791E+02</pdfrwt>
<totfact> 0.13293354E+05</totfact>
</mgrwt>
</event>
<event>
 5      1 +1.6944000e+03 9.42072100e+01 7.81860800e-03 1.29297200e-01
        1 -1    0    0  501    0 +0.0000000000e+00 +0.0000000000e+00 +1.9082158243e+02 1.9082158243e+02 0.0000000000e+00 0.0000e+00 -1.0000e+00
       -1 -1    0    0    0  501 -0.0000000000e+00 -0.0000000000e+00 -1.1627351151e+01 1.1627351151e+01 0.0000000000e+00 0.0000e+00 1.0000e+00
       23  2    1    2    0    0 +0.0000000000e+00 +0.0000000000e+00 +1.7919423128e+02 2.0244893358e+02 9.4207208768e+01 0.0000e+00 0.0000e+00
      -13  1    3    3    0    0 -2.6707453386e+01 +3.8122862666e+01 +1.0510980099e+02 1.1495525646e+02 0.0000000000e+00 0.0000e+00 1.0000e+00
       13  1    3    3    0    0 +2.6707453386e+01 -3.8122862666e+01 +7.4084430285e+01 8.7493677114e+01 0.0000000000e+00 0.0000e+00 -1.0000e+00
<mgrwt>
<rscale>  0 0.94207209E+02</rscale>
<asrwt>0</asrwt>
<pdfrwt beam="1">  1        1 0.29357164E-01 0.94207209E+02</pdfrwt>
<pdfrwt beam="2">  1       -1 0.17888234E-02 0.94207209E+02</pdfrwt>
<totfact> 0.10745232E+05</totfact>
</mgrwt>
</event>
<event>
 5      1 +1.6944000e+03 9.39625300e+01 7.81860800e-03 1.29353000e-01
       -1 -1    0    0    0  501 -0.0000000000e+00 +0.0000000000e+00 +4.2278396413e+00 4.2278396413e+00 0.0000000000e+00 0.0000e+00 1.0000e+00
        1 -1    0    0  501    0 +0.0000000000e+00 -0.0000000000e+00 -5.2207258377e+02 5.2207258377e+02 0.0000000000e+00 0.0000e+00 -1.0000e+00
       23  2    1    2    0    0 +0.0000000000e+00 +0.0000000000e+00 -5.1784474413e+02 5.2630042341e+02 9.3962527962e+01 0.0000e+00 0.0000e+00
      -13  1    3    3    0    0 +3.1409914087e+01 -3.4930522598e+01 -2.6294217845e+02 2.6710543484e+02 0.0000000000e+00 0.0000e+00 -1.0000e+00
       13  1    3    3    0    0 -3.1409914087e+01 +3.4930522598e+01 -2.5490256568e+02 2.5919498857e+02 0.0000000000e+00 0.0000e+00 1.0000e+00
<mgrwt>
<rscale>  0 0.93962528E+02</rscale>
<asrwt>0</asrwt>
<pdfrwt beam="2">  1        1 0.80318798E-01 0.93962528E+02</pdfrwt>
<pdfrwt beam="1">  1       -1 0.65043736E-03 0.93962528E+02</pdfrwt>
<totfact> 0.12919946E+05</totfact>
</mgrwt>
</event>
<event>
 5      1 +1.6944000e+03 9.11275400e+01 7.81860800e-03 1.30014400e-01
        3 -1    0    0  501    0 +0.0000000000e+00 +0.0000000000e+00 +1.2694471680e+02 1.2694471680e+02 0.0000000000e+00 0.0000e+00 -1.0000e+00
       -3 -1    0    0    0  501 -0.0000000000e+00 -0.0000000000e+00 -1.6354026212e+01 1.6354026212e+01 0.0000000000e+00 0.0000e+00 1.0000e+00
       23  2    1    2    0    0 +0.0000000000e+00 +0.0000000000e+00 +1.1059069059e+02 1.4329874301e+02 9.1127541962e+01 0.0000e+00 0.0000e+00
      -13  1    3    3    0    0 -4.4619261563e+01 +8.7743965283e+00 +5.0795475818e+01 6.8176600828e+01 0.0000000000e+00 0.0000e+00 -1.0000e+00
       13  1    3    3    0    0 +4.4619261563e+01 -8.7743965283e+00 +5.9795214771e+01 7.5122142185e+01 0.0000000000e+00 0.0000e+00 1.0000e+00
<mgrwt>
<rscale>  0 0.91127542E+02</rscale>
<asrwt>0</asrwt>
<pdfrwt beam="1">  1        3 0.19529956E-01 0.91127542E+02</pdfrwt>
<pdfrwt beam="2">  1       -3 0.25160041E-02 0.91127542E+02</pdfrwt>
<totfact> 0.31768635E+04</totfact>
</mgrwt>
</event>
<event>
 5      1 +1.6944000e+03 9.21597600e+01 7.81860800e-03 1.29770400e-01
        2 -1    0    0  501    0 +0.0000000000e+00 +0.0000000000e+00 +2.4087740715e+01 2.4087740715e+01 0.0000000000e+00 0.0000e+00 -1.0000e+00
       -2 -1    0    0    0  501 -0.0000000000e+00 -0.0000000000e+00 -8.8150865887e+01 8.8150865887e+01 0.0000000000e+00 0.0000e+00 1.0000e+00
       23  2    1    2    0    0 +0.0000000000e+00 +0.0000000000e+00 -6.4063125172e+01 1.1223860660e+02 9.2159756972e+01 0.0000e+00 0.0000e+00
      -13  1    3    3    0    0 +4.8012752186e-02 -4.4416750891e+01 -1.7090667837e+01 4.7591396198e+01 0.0000000000e+00 0.0000e+00 -1.0000e+00
       13  1    3    3    0    0 -4.8012752186e-02 +4.4416750891e+01 -4.6972457335e+01 6.4647210404e+01 0.0000000000e+00 0.0000e+00 1.0000e+00
<mgrwt>
<rscale>  0 0.92159757E+02</rscale>
<asrwt>0</asrwt>
<pdfrwt beam="1">  1        2 0.37058062E-02 0.92159757E+02</pdfrwt>
<pdfrwt beam="2">  1       -2 0.13561672E-01 0.92159757E+02</pdfrwt>
<totfact> 0.80627658E+04</totfact>
</mgrwt>
</event>
<event>
 5      1 +1.6944000e+03 9.05927200e+01 7.81860800e-03 1.30142300e-01
        1 -1    0    0  501    0 +0.0000000000e+00 +0.0000000000e+00 +4.1884754666e+01 4.1884754666e+01 0.0000000000e+00 0.0000e+00 -1.0000e+00
       -1 -1    0    0    0  501 -0.0000000000e+00 -0.0000000000e+00 -4.8985850999e+01 4.8985850999e+01 0.0000000000e+00 0.0000e+00 1.0000e+00
       23  2    1    2    0    0 +0.0000000000e+00 +0.0000000000e+00 -7.1010963330e+00 9.0870605665e+01 9.0592722692e+01 0.0000e+00 0.0000e+00
      -11  1    3    3    0    0 +4.1711902800e+01 -1.5298901460e+01 -1.2399236058e+01 4.6126784799e+01 0.0000000000e+00 0.0000e+00 1.0000e+00
       11  1    3    3    0    0 -4.1711902800e+01 +1.5298901460e+01 +5.2981397251e+00 4.4743820866e+01 0.0000000000e+00 0.0000e+00 -1.0000e+00
<mgrwt>
<rscale>  0 0.90592723E+02</rscale>
<asrwt>0</asrwt>
<pdfrwt beam="1">  1        1 0.64438084E-02 0.90592723E+02</pdfrwt>
<pdfrwt beam="2">  1       -1 0.75362847E-02 0.90592723E+02</pdfrwt>
<totfact> 0.92965677E+04</totfact>
</mgrwt>
</event>
<event>
 5      1 +1.6944000e+03 9.11422600e+01 7.81860800e-03 1.30010900e-01
        2 -1    0    0  501    0 +0.0000000000e+00 +0.0000000000e+00 +1.6693555841e+01 1.6693555841e+01 0.0000000000e+00 0.0000e+00 -1.0000e+00
       -2 -1    0    0    0  501 -0.0000000000e+00 -0.0000000000e+00 -1.2440297757e+02 1.2440297757e+02 0.0000000000e+00 0.0000e+00 1.0000e+00
       23  2    1    2    0    0 +0.0000000000e+00 +0.0000000000e+00 -1.0770942173e+02 1.4109653342e+02 9.1142263587e+01 0.0000e+00 0.0000e+00
      -13  1    3    3    0    0 -4.1079814038e+01 +9.0949966755e+00 -2.6753918337e+01 4.9860226958e+01 0.0000000000e+00 0.0000e+00 -1.0000e+00
       13  1    3    3    0    0 +4.1079814038e+01 -9.0949966755e+00 -8.0955503396e+01 9.1236306457e+01 0.0000000000e+00 0.0000e+00 1.0000e+00
<mgrwt>
<rscale>  0 0.91142264E+02</rscale>
<asrwt>0</asrwt>
<pdfrwt beam="1">  1        2 0.25682393E-02 0.91142264E+02</pdfrwt>
<pdfrwt beam="2">  1       -2 0.19138920E-01 0.91142264E+02</pdfrwt>
<totfact> 0.74605301E+04</totfact>
</mgrwt>
</event>
<event>
 5      1 +1.6944000e+03 9.20748300e+01 7.81860800e-03 1.29790400e-01
       -3 -1    0    0    0  501 -0.0000000000e+00 +0.0000000000e+00 +3.4148582106e+01 3.4148582106e+01 0.0000000000e+00 0.0000e+00 1.0000e+00
        3 -1    0    0  501    0 +0.0000000000e+00 -0.0000000000e+00 -6.2065344953e+01 6.2065344953e+01 0.0000000000e+00 0.0000e+00 -1.0000e+00
       23  2    1    2    0    0 +0.0000000000e+00 +0.0000000000e+00 -2.7916762846e+01 9.6213927059e+01 9.2074828874e+01 0.0000e+00 0.0000e+00
      -11  1    3    3    0    0 -2.2895792221e+01 +3.3670466667e+01 -3.6407281155e+01 5.4620579896e+01 0.0000000000e+00 0.0000e+00 -1.0000e+00
       11  1    3    3    0    0 +2.2895792221e+01 -3.3670466667e+01 +8.4905183090e+00 4.1593347163e+01 0.0000000000e+00 0.0000e+00 1.0000e+00
<mgrwt>
<rscale>  0 0.92074829E+02</rscale>
<asrwt>0</asrwt>
<pdfrwt beam="2">  1        3 0.95485146E-02 0.92074829E+02</pdfrwt>
<pdfrwt beam="1">  1       -3 0.52536280E-02 0.92074829E+02</pdfrwt>
<totfact> 0.34031967E+04</totfact>
</mgrwt>
</event>
<event>
 5      1 +1.6944000e+03 1.11815500e+02 7.81860800e-03 1.25724400e-01
        2 -1    0    0  501    0 +0.0000000000e+00 +0.0000000000e+00 +2.5349327342e+02 2.5349327342e+02 0.0000000000e+00 0.0000e+00 1.0000e+00
       -2 -1    0    0    0  501 -0.0000000000e+00 -0.0000000000e+00 -1.2330410086e+01 1.2330410086e+01 0.0000000000e+00 0.0000e+00 -1.0000e+00
       23  2    1    2    0    0 +0.0000000000e+00 +0.0000000000e+00 +2.4116286333e+02 2.6582368350e+02 1.1181549115e+02 0.0000e+00 0.0000e+00
      -11  1    3    3    0    0 -4.2578074328e+01 +3.0639771851e+01 +1.6655630270e+02 1.7462156225e+02 0.0000000000e+00 0.0000e+00 -1.0000e+00
       11  1    3    3    0    0 +4.2578074328e+01 -3.0639771851e+01 +7.4606560633e+01 9.1202121258e+01 0.0000000000e+00 0.0000e+00 1.0000e+00
<mgrwt>
<rscale>  0 0.11181549E+03</rscale>
<asrwt>0</asrwt>
<pdfrwt beam="1">  1        2 0.38998961E-01 0.11181549E+03</pdfrwt>
<pdfrwt beam="2">  1       -2 0.18969864E-02 0.11181549E+03</pdfrwt>
<totfact> 0.97053028E+04</totfact>
</mgrwt>
</event>
<event>
 5      1 +1.6944000e+03 9.32371800e+01 7.81860800e-03 1.29519600e-01
        2 -1    0    0  501    0 +0.0000000000e+00 +0.0000000000e+00 +1.1302800390e+02 1.1302800390e+02 0.0000000000e+00 0.0000e+00 1.0000e+00
       -2 -1    0    0    0  501 -0.0000000000e+00 -0.0000000000e+00 -1.9227915586e+01 1.9227915586e+01 0.0000000000e+00 0.0000e+00 -1.0000e+00
       23  2    1    2    0    0 +0.0000000000e+00 +0.0000000000e+00 +9.3800088313e+01 1.3225591948e+02 9.3237179662e+01 0.0000e+00 0.0000e+00
      -11  1    3    3    0    0 +5.3770686982e+00 +2.9770561039e+01 -3.4132198841e+00 3.0444198829e+01 0.0000000000e+00 0.0000e+00 -1.0000e+00
       11  1    3    3    0    0 -5.3770686982e+00 -2.9770561039e+01 +9.7213308197e+01 1.0181172066e+02 0.0000000000e+00 0.0000e+00 1.0000e+00
<mgrwt>
<rscale>  0 0.93237180E+02</rscale>
<asrwt>0</asrwt>
<pdfrwt beam="1">  1        2 0.17388923E-01 0.93237180E+02</pdfrwt>
<pdfrwt beam="2">  1       -2 0.29581409E-02 0.93237180E+02</pdfrwt>
<totfact> 0.11983372E+05</totfact>
</mgrwt>
</event>
<event>
 5      1 +1.6944000e+03 9.15521300e+01 7.81860800e-03 1.29913600e-01
        2 -1    0    0  501    0 +0.0000000000e+00 +0.0000000000e+00 +3.0847804122e+01 3.0847804122e+01 0.0000000000e+00 0.0000e+00 1.0000e+00
       -2 -1    0    0    0  501 -0.0000000000e+00 -0.0000000000e+00 -6.7928601959e+01 6.7928601959e+01 0.0000000000e+00 0.0000e+00 -1.0000e+00
       23  2    1    2    0    0 +0.0000000000e+00 +0.0000000000e+00 -3.7080797837e+01 9.8776406082e+01 9.1552131762e+01 0.0000e+00 0.0000e+00
      -13  1    3    3    0    0 -1.8499021642e+01 -3.9184647037e+01 -2.6178883425e+00 4.3410870810e+01 0.0000000000e+00 0.0000e+00 1.0000e+00
       13  1    3    3    0    0 +1.8499021642e+01 +3.9184647037e+01 -3.4462909495e+01 5.5365535272e+01 0.0000000000e+00 0.0000e+00 -1.0000e+00
<mgrwt>
<rscale>  0 0.91552132E+02</rscale>
<asrwt>0</asrwt>
<pdfrwt beam="1">  1        2 0.47458160E-02 0.91552132E+02</pdfrwt>
<pdfrwt beam="2">  1       -2 0.10450554E-01 0.91552132E+02</pdfrwt>
<totfact> 0.88046369E+04</totfact>
</mgrwt>
</event>
<event>
 5      1 +1.6944000e+03 8.65395800e+01 7.81860800e-03 1.31145500e-01
       -2 -1    0    0    0  501 -0.0000000000e+00 +0.0000000000e+00 +4.2881801461e+01 4.2881801461e+01 0.0000000000e+00 0.0000e+00 1.0000e+00
        2 -1    0    0  501    0 +0.0000000000e+00 -0.0000000000e+00 -4.3661288659e+01 4.3661288659e+01 0.0000000000e+00 0.0000e+00 -1.0000e+00
       23  2    1    2    0    0 +0.0000000000e+00 +0.0000000000e+00 -7.7948719745e-01 8.6543090120e+01 8.6539579657e+01 0.0000e+00 0.0000e+00
      -13  1    3    3    0    0 -6.4162076228e+00 -2.1909601038e+01 +3.6368738259e+01 4.2940464139e+01 0.0000000000e+00 0.0000e+00 1.0000e+00
       13  1    3    3    0    0 +6.4162076228e+00 +2.1909601038e+01 -3.7148225457e+01 4.3602625981e+01 0.0000000000e+00 0.0000e+00 -1.0000e+00
<mgrwt>
<rscale>  0 0.86539580E+02</rscale>
<asrwt>0</asrwt>
<pdfrwt beam="2">  1        2 0.67171214E-02 0.86539580E+02</pdfrwt>
<pdfrwt beam="1">  1       -2 0.65972002E-02 0.86539580E+02</pdfrwt>
<totfact> 0.11329008E+05</totfact>
</mgrwt>
</event>
<event>
 5      1 +1.6944000e+03 8.85158300e+01 7.81860800e-03 1.30648600e-01
       -1 -1    0    0    0  501 -0.0000000000e+00 +0.0000000000e+00 +7.5476618529e+01 7.5476618529e+01 0.0000000000e+00 0.0000e+00 1.0000e+00
        1 -1    0    0  501    0 +0.0000000000e+00 -0.0000000000e+00 -2.5951916177e+01 2.5951916177e+01 0.0000000000e+00 0.0000e+00 -1.0000e+00
       23  2    1    2    0    0 +0.0000000000e+00 +0.0000000000e+00 +4.9524702352e+01 1.0142853471e+02 8.8515826321e+01 0.0000e+00 0.0000e+00
      -11  1    3    3    0    0 +4.2809846611e+01 -7.1885025608e+00 +1.4878156729e+01 4.5888093048e+01 0.0000000000e+00 0.0000e+00 1.0000e+00
       11  1    3    3    0    0 -4.2809846611e+01 +7.1885025608e+00 +3.4646545623e+01 5.5540441657e+01 0.0000000000e+00 0.0000e+00 -1.0000e+00
<mgrwt>
<rscale>  0 0.88515826E+02</rscale>
<asrwt>0</asrwt>
<pdfrwt beam="2">  1        1 0.39926025E-02 0.88515826E+02</pdfrwt>
<pdfrwt beam="1">  1       -1 0.11611787E-01 0.88515826E+02</pdfrwt>
<totfact> 0.92191672E+04</totfact>
</mgrwt>
</event>
<event>
 5      1 +1.6944000e+03 8.97484700e+01 7.81860800e-03 1.30346200e-01
       -2 -1    0    0    0  501 -0.0000000000e+00 +0.0000000000e+00 +8.6911354254e+01 8.6911354254e+01 0.0000000000e+00 0.0000e+00 -1.0000e+00
        2 -1    0    0  501    0 +0.0000000000e+00 -0.0000000000e+00 -2.3169550756e+01 2.3169550756e+01 0.0000000000e+00 0.0000e+00 1.0000e+00
       23  2    1    2    0    0 +0.0000000000e+00 +0.0000000000e+00 +6.3741803497e+01 1.1008090501e+02 8.9748471490e+01 0.0000e+00 0.0000e+00
      -11  1    3    3    0    0 +3.6000853978e+01 +6.3833616510e-01 +6.4719252595e+01 7.4061127568e+01 0.0000000000e+00 0.0000e+00 -1.0000e+00
       11  1    3    3    0    0 -3.6000853978e+01 -6.3833616510e-01 -9.7744909826e-01 3.6019777442e+01 0.0000000000e+00 0.0000e+00 1.0000e+00
<mgrwt>
<rscale>  0 0.89748471E+02</rscale>
<asrwt>0</asrwt>
<pdfrwt beam="2">  1        2 0.35645463E-02 0.89748471E+02</pdfrwt>
<pdfrwt beam="1">  1       -2 0.13370977E-01 0.89748471E+02</pdfrwt>
<totfact> 0.86431819E+04</totfact>
</mgrwt>
</event>
<event>
 5      1 +1.6944000e+03 9.51873700e+01 7.81860800e-03 1.29075500e-01
       -3 -1    0    0    0  501 -0.0000000000e+00 +0.0000000000e+00 +3.6457003682e+02 3.6457003682e+02 0.0000000000e+00 0.0000e+00 1.0000e+00
        3 -1    0    0  501    0 +0.0000000000e+00 -0.0000000000e+00 -6.2132331002e+00 6.2132331002e+00 0.0000000000e+00 0.0000e+00 -1.0000e+00
       23  2    1    2    0    0 +0.0000000000e+00 +0.0000000000e+00 +3.5835680372e+02 3.7078326992e+02 9.5187365130e+01 0.0000e+00 0.0000e+00
      -11  1    3    3    0    0 -2.6299892332e+01 -3.6400202105e+01 +2.4058338913e+02 2.4473868958e+02 0.0000000000e+00 0.0000e+00 1.0000e+00
       11  1    3    3    0    0 +2.6299892332e+01 +3.6400202105e+01 +1.1777341458e+02 1.2604458034e+02 0.0000000000e+00 0.0000e+00 -1.0000e+00
<mgrwt>
<rscale>  0 0.95187365E+02</rscale>
<asrwt>0</asrwt>
<pdfrwt beam="2">  1        3 0.95588230E-03 0.95187365E+02</pdfrwt>
<pdfrwt beam="1">  1       -3 0.56087681E-01 0.95187365E+02</pdfrwt>
<totfact> 0.19165494E+04</totfact>
</mgrwt>
</event>
<event>
 4      1 +1.6944000e+03 2.64404600e+01 7.81860800e-03 1.64113400e-01
       -2 -1    0    0    0  501 -0.0000000000e+00 +0.0000000000e+00 +1.5283955690e+00 1.5283955690e+00 0.0000000000e+00 0.0000e+00 1.0000e+00
        2 -1    0    0  501    0 +0.0000000000e+00 -0.0000000000e+00 -1.1435162548e+02 1.1435162548e+02 0.0000000000e+00 0.0000e+00 -1.0000e+00
      -13  1    1    2    0    0 +1.2465211795e+01 +1.7851879380e+00 -7.4054881439e+01 7.5117866490e+01 0.0000000000e+00 0.0000e+00 -1.0000e+00
       13  1    1    2    0    0 -1.2465211795e+01 -1.7851879380e+00 -3.8768348474e+01 4.0762154561e+01 0.0000000000e+00 0.0000e+00 1.0000e+00
<mgrwt>
<rscale>  0 0.26440463E+02</rscale>
<asrwt>0</asrwt>
<pdfrwt beam="2">  1        2 0.17592559E-01 0.26440463E+02</pdfrwt>
<pdfrwt beam="1">  1       -2 0.23513776E-03 0.26440463E+02</pdfrwt>
<totfact> 0.29000052E+06</totfact>
</mgrwt>
</event>
<event>
 5      1 +1.6944000e+03 9.02696900e+01 7.81860800e-03 1.30220000e-01
        2 -1    0    0  501    0 +0.0000000000e+00 +0.0000000000e+00 +8.4253124459e+01 8.4253124459e+01 0.0000000000e+00 0.0000e+00 1.0000e+00
       -2 -1    0    0    0  501 -0.0000000000e+00 -0.0000000000e+00 -2.4178976407e+01 2.4178976407e+01 0.0000000000e+00 0.0000e+00 -1.0000e+00
       23  2    1    2    0    0 +0.0000000000e+00 +0.0000000000e+00 +6.0074148052e+01 1.0843210087e+02 9.0269691670e+01 0.0000e+00 0.0000e+00
      -13  1    3    3    0    0 +2.8302094443e+01 +8.1525608100e-01 +7.2258604234e+01 7.7607854488e+01 0.0000000000e+00 0.0000e+00 1.0000e+00
       13  1    3    3    0    0 -2.8302094443e+01 -8.1525608100e-01 -1.2184456183e+01 3.0824246378e+01 0.0000000000e+00 0.0000e+00 -1.0000e+00
<mgrwt>
<rscale>  0 0.90269692E+02</rscale>
<asrwt>0</asrwt>
<pdfrwt beam="1">  1        2 0.12962019E-01 0.90269692E+02</pdfrwt>
<pdfrwt beam="2">  1       -2 0.37198425E-02 0.90269692E+02</pdfrwt>
<totfact> 0.11985490E+05</totfact>
</mgrwt>
</event>
<event>
 5      1 +1.6944000e+03 9.03104600e+01 7.81860800e-03 1.30210200e-01
        1 -1    0    0  501    0 +0.0000000000e+00 +0.0000000000e+00 +3.1300455868e+01 3.1300455868e+01 0.0000000000e+00 0.0000e+00 -1.0000e+00
       -1 -1    0    0    0  501 -0.0000000000e+00 -0.0000000000e+00 -6.5142659008e+01 6.5142659008e+01 0.0000000000e+00 0.0000e+00 1.0000e+00
       23  2    1    2    0    0 +0.0000000000e+00 +0.0000000000e+00 -3.3842203141e+01 9.6443114876e+01 9.0310462814e+01 0.0000e+00 0.0000e+00
      -11  1    3    3    0    0 -2.6494344887e+01 +9.2311861839e+00 -5.4704916557e+01 6.1480021185e+01 0.0000000000e+00 0.0000e+00 1.0000e+00
       11  1    3    3    0    0 +2.6494344887e+01 -9.2311861839e+00 +2.0862713416e+01 3.4963093691e+01 0.0000000000e+00 0.0000e+00 -1.0000e+00
<mgrwt>
<rscale>  0 0.90310463E+02</rscale>
<asrwt>0</asrwt>
<pdfrwt beam="1">  1        1 0.48154547E-02 0.90310463E+02</pdfrwt>
<pdfrwt beam="2">  1       -1 0.10021948E-01 0.90310463E+02</pdfrwt>
<totfact> 0.89691647E+04</totfact>
</mgrwt>
</event>
<event>
 5      1 +1.6944000e+03 9.15136800e+01 7.81860800e-03 1.29922700e-01
       -1 -1    0    0    0  501 -0.0000000000e+00 +0.0000000000e+00 +2.9005151911e+02 2.9005151911e+02 0.0000000000e+00 0.0000e+00 1.0000e+00
        1 -1    0    0  501    0 +0.0000000000e+00 -0.0000000000e+00 -7.2183332789e+00 7.2183332789e+00 0.0000000000e+00 0.0000e+00 -1.0000e+00
       23  2    1    2    0    0 +0.0000000000e+00 +0.0000000000e+00 +2.8283318583e+02 2.9726985239e+02 9.1513682758e+01 0.0000e+00 0.0000e+00
      -13  1    3    3    0    0 +1.5185981138e+01 -4.3079572711e+01 +1.3268524083e+02 1.4032760506e+02 0.0000000000e+00 0.0000e+00 1.0000e+00
       13  1    3    3    0    0 -1.5185981138e+01 +4.3079572711e+01 +1.5014794500e+02 1.5694224732e+02 0.0000000000e+00 0.0000e+00 -1.0000e+00
<mgrwt>
<rscale>  0 0.91513683E+02</rscale>
<asrwt>0</asrwt>
<pdfrwt beam="2">  1        1 0.11105130E-02 0.91513683E+02</pdfrwt>
<pdfrwt beam="1">  1       -1 0.44623302E-01 0.91513683E+02</pdfrwt>
<totfact> 0.60795494E+04</totfact>
</mgrwt>
</event>
<event>
 4      1 +1.6944000e+03 3.23215700e+01 7.81860800e-03 1.57375900e-01
        2 -1    0    0  501    0 +0.0000000000e+00 +0.0000000000e+00 +5.4858687697e+01 5.4858687697e+01 0.0000000000e+00 0.0000e+00 1.0000e+00
       -2 -1    0    0    0  501 -0.0000000000e+00 -0.0000000000e+00 -4.7607963249e+00 4.7607963249e+00 0.0000000000e+00 0.0000e+00 -1.0000e+00
      -11  1    1    2    0    0 -1.6010221856e+01 +1.9592541699e+00 +2.6898269127e+01 3.1363717299e+01 0.0000000000e+00 0.0000e+00 1.0000e+00
       11  1    1    2    0    0 +1.6010221856e+01 -1.9592541699e+00 +2.3199622245e+01 2.8255766723e+01 0.0000000000e+00 0.0000e+00 -1.0000e+00
<mgrwt>
<rscale>  0 0.32321574E+02</rscale>
<asrwt>0</asrwt>
<pdfrwt beam="1">  1        2 0.84397977E-02 0.32321574E+02</pdfrwt>
<pdfrwt beam="2">  1       -2 0.73243024E-03 0.32321574E+02</pdfrwt>
<totfact> 0.15450184E+06</totfact>
</mgrwt>
</event>
<event>
 4      1 +1.6944000e+03 2.07291800e+01 7.81860800e-03 1.73120500e-01
        2 -1    0    0  501    0 +0.0000000000e+00 +0.0000000000e+00 +2.1750915407e+00 2.1750915407e+00 0.0000000000e+00 0.0000e+00 1.0000e+00
       -2 -1    0    0    0  501 -0.0000000000e+00 -0.0000000000e+00 -4.9388589901e+01 4.9388589901e+01 0.0000000000e+00 0.0000e+00 -1.0000e+00
      -13  1    1    2    0    0 +1.5469933812e+00 +9.9609451096e+00 -2.9603148801e+01 3.1272352564e+01 0.0000000000e+00 0.0000e+00 1.0000e+00
       13  1    1    2    0    0 -1.5469933812e+00 -9.9609451096e+00 -1.7610349560e+01 2.0291328878e+01 0.0000000000e+00 0.0000e+00 -1.0000e+00
<mgrwt>
<rscale>  0 0.20729178E+02</rscale>
<asrwt>0</asrwt>
<pdfrwt beam="1">  1        2 0.33462950E-03 0.20729178E+02</pdfrwt>
<pdfrwt beam="2">  1       -2 0.75982439E-02 0.20729178E+02</pdfrwt>
<totfact> 0.31393967E+06</totfact>
</mgrwt>
</event>
<event>
 5      1 +1.6944000e+03 8.66024300e+01 7.81860800e-03 1.31129400e-01
        1 -1    0    0  501    0 +0.0000000000e+00 +0.0000000000e+00 +2.3051920219e+01 2.3051920219e+01 0.0000000000e+00 0.0000e+00 -1.0000e+00
       -1 -1    0    0    0  501 -0.0000000000e+00 -0.0000000000e+00 -8.1337912875e+01 8.1337912875e+01 0.0000000000e+00 0.0000e+00 1.0000e+00
       23  2    1    2    0    0 +0.0000000000e+00 +0.0000000000e+00 -5.8285992656e+01 1.0438983309e+02 8.6602426719e+01 0.0000e+00 0.0000e+00
      -13  1    3    3    0    0 +3.5140501192e+01 -3.8186917016e+00 -5.9291230504e+01 6.9028162695e+01 0.0000000000e+00 0.0000e+00 1.0000e+00
       13  1    3    3    0    0 -3.5140501192e+01 +3.8186917016e+00 +1.0052378482e+00 3.5361670400e+01 0.0000000000e+00 0.0000e+00 -1.0000e+00
<mgrwt>
<rscale>  0 0.86602427E+02</rscale>
<asrwt>0</asrwt>
<pdfrwt beam="1">  1        1 0.35464492E-02 0.86602427E+02</pdfrwt>
<pdfrwt beam="2">  1       -1 0.12513525E-01 0.86602427E+02</pdfrwt>
<totfact> 0.96288642E+04</totfact>
</mgrwt>
</event>
<event>
 5      1 +1.6944000e+03 9.12094700e+01 7.81860800e-03 1.29994900e-01
        4 -1    0    0  501    0 +0.0000000000e+00 +0.0000000000e+00 +6.5488490011e+01 6.5488490011e+01 0.0000000000e+00 0.0000e+00 -1.0000e+00
       -4 -1    0    0    0  501 -0.0000000000e+00 -0.0000000000e+00 -3.1758128942e+01 3.1758128942e+01 0.0000000000e+00 0.0000e+00 1.0000e+00
       23  2    1    2    0    0 +0.0000000000e+00 +0.0000000000e+00 +3.3730361069e+01 9.7246618953e+01 9.1209471219e+01 0.0000e+00 0.0000e+00
      -11  1    3    3    0    0 -1.8396863719e+01 +1.7253872274e+01 +5.7375504099e+01 6.2674469872e+01 0.0000000000e+00 0.0000e+00 -1.0000e+00
       11  1    3    3    0    0 +1.8396863719e+01 -1.7253872274e+01 -2.3645143030e+01 3.4572149081e+01 0.0000000000e+00 0.0000e+00 1.0000e+00
<mgrwt>
<rscale>  0 0.91209471E+02</rscale>
<asrwt>0</asrwt>
<pdfrwt beam="1">  1        4 0.10075152E-01 0.91209471E+02</pdfrwt>
<pdfrwt beam="2">  1       -4 0.48858660E-02 0.91209471E+02</pdfrwt>
<totfact> 0.26603950E+04</totfact>
</mgrwt>
</event>
<event>
 5      1 +1.6944000e+03 9.12556800e+01 7.81860800e-03 1.29983900e-01
       -1 -1    0    0    0  501 -0.0000000000e+00 +0.0000000000e+00 +5.3750601314e+01 5.3750601314e+01 0.0000000000e+00 0.0000e+00 1.0000e+00
        1 -1    0    0  501    0 +0.0000000000e+00 -0.0000000000e+00 -3.8732588242e+01 3.8732588242e+01 0.0000000000e+00 0.0000e+00 -1.0000e+00
       23  2    1    2    0    0 +0.0000000000e+00 +0.0000000000e+00 +1.5018013072e+01 9.2483189555e+01 9.1255682748e+01 0.0000e+00 0.0000e+00
      -13  1    3    3    0    0 +4.2588860294e+01 +4.9323586077e+00 -8.3138448021e+00 4.3672178764e+01 0.0000000000e+00 0.0000e+00 1.0000e+00
       13  1    3    3    0    0 -4.2588860294e+01 -4.9323586077e+00 +2.3331857874e+01 4.8811010791e+01 0.0000000000e+00 0.0000e+00 -1.0000e+00
<mgrwt>
<rscale>  0 0.91255683E+02</rscale>
<asrwt>0</asrwt>
<pdfrwt beam="2">  1        1 0.59588598E-02 0.91255683E+02</pdfrwt>
<pdfrwt beam="1">  1       -1 0.82693232E-02 0.91255683E+02</pdfrwt>
<totfact> 0.89999549E+04</totfact>
</mgrwt>
</event>
<event>
 5      1 +1.6944000e+03 9.06109600e+01 7.81860800e-03 1.30137900e-01
       -3 -1    0    0    0  501 -0.0000000000e+00 +0.0000000000e+00 +2.1956341977e+02 2.1956341977e+02 0.0000000000e+00 0.0000e+00 -1.0000e+00
        3 -1    0    0  501    0 +0.0000000000e+00 -0.0000000000e+00 -9.3484902678e+00 9.3484902678e+00 0.0000000000e+00 0.0000e+00 1.0000e+00
       23  2    1    2    0    0 +0.0000000000e+00 +0.0000000000e+00 +2.1021492950e+02 2.2891191003e+02 9.0610959444e+01 0.0000e+00 0.0000e+00
      -13  1    3    3    0    0 -4.3990160658e+01 -9.7673439242e+00 +1.1697073092e+02 1.2535025781e+02 0.0000000000e+00 0.0000e+00 -1.0000e+00
       13  1    3    3    0    0 +4.3990160658e+01 +9.7673439242e+00 +9.3244198578e+01 1.0356165222e+02 0.0000000000e+00 0.0000e+00 1.0000e+00
<mgrwt>
<rscale>  0 0.90610959E+02</rscale>
<asrwt>0</asrwt>
<pdfrwt beam="2">  1        3 0.14382294E-02 0.90610959E+02</pdfrwt>
<pdfrwt beam="1">  1       -3 0.33778984E-01 0.90610959E+02</pdfrwt>
<totfact> 0.27523968E+04</totfact>
</mgrwt>
</event>
<event>
 5      1 +1.6944000e+03 8.93599500e+01 7.81860800e-03 1.30440900e-01
        2 -1    0    0  501    0 +0.0000000000e+00 +0.0000000000e+00 +8.9757536406e+00 8.9757536406e+00 0.0000000000e+00 0.0000e+00 -1.0000e+00
       -2 -1    0    0    0  501 -0.0000000000e+00 -0.0000000000e+00 -2.2241030492e+02 2.2241030492e+02 0.0000000000e+00 0.0000e+00 1.0000e+00
       23  2    1    2    0    0 +0.0000000000e+00 +0.0000000000e+00 -2.1343455128e+02 2.3138605856e+02 8.9359948615e+01 0.0000e+00 0.0000e+00
      -11  1    3    3    0    0 +3.2789079008e+01 +5.5298441828e+00 -2.9442999270e+01 4.4413883921e+01 0.0000000000e+00 0.0000e+00 -1.0000e+00
       11  1    3    3    0    0 -3.2789079008e+01 -5.5298441828e+00 -1.8399155201e+02 1.8697217464e+02 0.0000000000e+00 0.0000e+00 1.0000e+00
<mgrwt>
<rscale>  0 0.89359949E+02</rscale>
<asrwt>0</asrwt>
<pdfrwt beam="1">  1        2 0.13808852E-02 0.89359949E+02</pdfrwt>
<pdfrwt beam="2">  1       -2 0.34216969E-01 0.89359949E+02</pdfrwt>
<totfact> 0.62564648E+04</totfact>
</mgrwt>
</event>
<event>
 4      1 +1.6944000e+03 2.18623600e+01 7.81860800e-03 1.71064300e-01
       -2 -1    0    0    0  501 -0.0000000000e+00 +0.0000000000e+00 +1.0942509962e+01 1.0942509962e+01 0.0000000000e+00 0.0000e+00 1.0000e+00
        2 -1    0    0  501    0 +0.0000000000e+00 -0.0000000000e+00 -1.0919865538e+01 1.0919865538e+01 0.0000000000e+00 0.0000e+00 -1.0000e+00
      -11  1    1    2    0    0 +1.0686979302e+01 +8.8073933058e-01 +2.1334706271e+00 1.0933385811e+01 0.0000000000e+00 0.0000e+00 -1.0000e+00
       11  1    1    2    0    0 -1.0686979302e+01 -8.8073933058e-01 -2.1108262032e+00 1.0928989689e+01 0.0000000000e+00 0.0000e+00 1.0000e+00
<mgrwt>
<rscale>  0 0.21862364E+02</rscale>
<asrwt>0</asrwt>
<pdfrwt beam="2">  1        2 0.16799793E-02 0.21862364E+02</pdfrwt>
<pdfrwt beam="1">  1       -2 0.16834631E-02 0.21862364E+02</pdfrwt>
<totfact> 0.32355043E+06</totfact>
</mgrwt>
</event>
<event>
 5      1 +1.6944000e+03 9.13813400e+01 7.81860800e-03 1.29954100e-01
        1 -1    0    0  501    0 +0.0000000000e+00 +0.0000000000e+00 +1.0861258373e+02 1.0861258373e+02 0.0000000000e+00 0.0000e+00 -1.0000e+00
       -1 -1    0    0    0  501 -0.0000000000e+00 -0.0000000000e+00 -1.9220951762e+01 1.9220951762e+01 0.0000000000e+00 0.0000e+00 1.0000e+00
       23  2    1    2    0    0 +0.0000000000e+00 +0.0000000000e+00 +8.9391631973e+01 1.2783353550e+02 9.1381337979e+01 0.0000e+00 0.0000e+00
      -11  1    3    3    0    0 -9.9080292617e-01 +4.3686744021e+01 +6.3365992898e+01 7.6972477871e+01 0.0000000000e+00 0.0000e+00 -1.0000e+00
       11  1    3    3    0    0 +9.9080292617e-01 -4.3686744021e+01 +2.6025639075e+01 5.0861057626e+01 0.0000000000e+00 0.0000e+00 1.0000e+00
<mgrwt>
<rscale>  0 0.91381338E+02</rscale>
<asrwt>0</asrwt>
<pdfrwt beam="1">  1        1 0.16709628E-01 0.91381338E+02</pdfrwt>
<pdfrwt beam="2">  1       -1 0.29570696E-02 0.91381338E+02</pdfrwt>
<totfact> 0.10526708E+05</totfact>
</mgrwt>
</event>
<event>
 5      1 +1.6944000e+03 8.55391300e+01 7.81860800e-03 1.31402900e-01
       -4 -1    0    0    0  501 -0.0000000000e+00 +0.0000000000e+00 +3.5204711878e+02 3.5204711878e+02 0.0000000000e+00 0.0000e+00 -1.0000e+00
        4 -1    0    0  501    0 +0.0000000000e+00 -0.0000000000e+00 -5.1959962613e+00 5.1959962613e+00 0.0000000000e+00 0.0000e+00 1.0000e+00
       23  2    1    2    0    0 +0.0000000000e+00 +0.0000000000e+00 +3.4685112252e+02 3.5724311504e+02 8.5539125855e+01 0.0000e+00 0.0000e+00
      -11  1    3    3    0    0 +4.1379925592e+01 -7.3654631546e+00 +2.0649208781e+02 2.1072619823e+02 0.0000000000e+00 0.0000e+00 1.0000e+00
       11  1    3    3    0    0 -4.1379925592e+01 +7.3654631546e+00 +1.4035903470e+02 1.4651691681e+02 0.0000000000e+00 0.0000e+00 -1.0000e+00
<mgrwt>
<rscale>  0 0.85539126E+02</rscale>
<asrwt>0</asrwt>
<pdfrwt beam="2">  1        4 0.79938432E-03 0.85539126E+02</pdfrwt>
<pdfrwt beam="1">  1       -4 0.54161076E-01 0.85539126E+02</pdfrwt>
<totfact> 0.19174232E+04</totfact>
</mgrwt>
</event>
<event>
 5      1 +1.6944000e+03 9.47171900e+01 7.81860800e-03 1.29181400e-01
       -2 -1    0    0    0  501 -0.0000000000e+00 +0.0000000000e+00 +1.5982055287e+01 1.5982055287e+01 0.0000000000e+00 0.0000e+00 1.0000e+00
        2 -1    0    0  501    0 +0.0000000000e+00 -0.0000000000e+00 -1.4033467726e+02 1.4033467726e+02 0.0000000000e+00 0.0000e+00 -1.0000e+00
       23  2    1    2    0    0 +0.0000000000e+00 +0.0000000000e+00 -1.2435262197e+02 1.5631673255e+02 9.4717191063e+01 0.0000e+00 0.0000e+00
      -11  1    3    3    0    0 +2.5642364348e+01 -2.5076761938e+01 -1.1321628654e+02 1.1876153576e+02 0.0000000000e+00 0.0000e+00 -1.0000e+00
       11  1    3    3    0    0 -2.5642364348e+01 +2.5076761938e+01 -1.1136335431e+01 3.7555196784e+01 0.0000000000e+00 0.0000e+00 1.0000e+00
<mgrwt>
<rscale>  0 0.94717191E+02</rscale>
<asrwt>0</asrwt>
<pdfrwt beam="2">  1        2 0.21589950E-01 0.94717191E+02</pdfrwt>
<pdfrwt beam="1">  1       -2 0.24587778E-02 0.94717191E+02</pdfrwt>
<totfact> 0.12320582E+05</totfact>
</mgrwt>
</event>
<event>
 5      1 +1.6944000e+03 9.07750900e+01 7.81860800e-03 1.30098500e-01
       -2 -1    0    0    0  501 -0.0000000000e+00 +0.0000000000e+00 +6.0526696541e+00 6.0526696541e+00 0.0000000000e+00 0.0000e+00 1.0000e+00
        2 -1    0    0  501    0 +0.0000000000e+00 -0.0000000000e+00 -3.4035053926e+02 3.4035053926e+02 0.0000000000e+00 0.0000e+00 -1.0000e+00
       23  2    1    2    0    0 +0.0000000000e+00 +0.0000000000e+00 -3.3429786961e+02 3.4640320891e+02 9.0775093076e+01 0.0000e+00 0.0000e+00
      -13  1    3    3    0    0 -1.2050533295e+01 +4.0027262042e+01 -2.3462226433e+02 2.3831702411e+02 0.0000000000e+00 0.0000e+00 -1.0000e+00
       13  1    3    3    0    0 +1.2050533295e+01 -4.0027262042e+01 -9.9675605274e+01 1.0808618481e+02 0.0000000000e+00 0.0000e+00 1.0000e+00
<mgrwt>
<rscale>  0 0.90775093E+02</rscale>
<asrwt>0</asrwt>
<pdfrwt beam="2">  1        2 0.52361624E-01 0.90775093E+02</pdfrwt>
<pdfrwt beam="1">  1       -2 0.93117990E-03 0.90775093E+02</pdfrwt>
<totfact> 0.19048137E+05</totfact>
</mgrwt>
</event>
<event>
 4      1 +1.6944000e+03 9.64979700e+01 7.81860800e-03 1.28783700e-01
        2 -1    0    0  501    0 +0.0000000000e+00 +0.0000000000e+00 +2.9368503299e+02 2.9368503299e+02 0.0000000000e+00 0.0000e+00 -1.0000e+00
       -2 -1    0    0    0  501 -0.0000000000e+00 -0.0000000000e+00 -7.9267393604e+00 7.9267393604e+00 0.0000000000e+00 0.0000e+00 1.0000e+00
      -13  1    1    2    0    0 +3.9683908036e+01 +9.9041723763e+00 +2.2287555340e+02 2.2659747900e+02 0.0000000000e+00 0.0000e+00 1.0000e+00
       13  1    1    2    0    0 -3.9683908036e+01 -9.9041723763e+00 +6.2882740227e+01 7.5014293344e+01 0.0000000000e+00 0.0000e+00 -1.0000e+00
<mgrwt>
<rscale>  0 0.96497973E+02</rscale>
<asrwt>0</asrwt>
<pdfrwt beam="1">  1        2 0.45182304E-01 0.96497973E+02</pdfrwt>
<pdfrwt beam="2">  1       -2 0.12194986E-02 0.96497973E+02</pdfrwt>
<totfact> 0.15311305E+05</totfact>
</mgrwt>
</event>
<event>
 5      1 +1.6944000e+03 9.14481500e+01 7.81860800e-03 1.29938200e-01
        1 -1    0    0  501    0 +0.0000000000e+00 +0.0000000000e+00 +2.3681341607e+01 2.3681341607e+01 0.0000000000e+00 0.0000e+00 -1.0000e+00
       -1 -1    0    0    0  501 -0.0000000000e+00 -0.0000000000e+00 -8.8284318084e+01 8.8284318084e+01 0.0000000000e+00 0.0000e+00 1.0000e+00
       23  2    1    2    0    0 +0.0000000000e+00 +0.0000000000e+00 -6.4602976477e+01 1.1196565969e+02 9.1448151322e+01 0.0000e+00 0.0000e+00
      -11  1    3    3    0    0 +4.2440046157e+01 -8.3763859606e+00 -1.4167293772e+01 4.5519595477e+01 0.0000000000e+00 0.0000e+00 -1.0000e+00
       11  1    3    3    0    0 -4.2440046157e+01 +8.3763859606e+00 -5.0435682705e+01 6.6446064214e+01 0.0000000000e+00 0.0000e+00 1.0000e+00
<mgrwt>
<rscale>  0 0.91448151E+02</rscale>
<asrwt>0</asrwt>
<pdfrwt beam="1">  1        1 0.36432833E-02 0.91448151E+02</pdfrwt>
<pdfrwt beam="2">  1       -1 0.13582203E-01 0.91448151E+02</pdfrwt>
<totfact> 0.82591536E+04</totfact>
</mgrwt>
</event>
<event>
 5      1 +1.6944000e+03 8.99419600e+01 7.81860800e-03 1.30299200e-01
       -3 -1    0    0    0  501 -0.0000000000e+00 +0.0000000000e+00 +7.4373288138e+00 7.4373288138e+00 0.0000000000e+00 0.0000e+00 1.0000e+00
        3 -1    0    0  501    0 +0.0000000000e+00 -0.0000000000e+00 -2.7192408905e+02 2.7192408905e+02 0.0000000000e+00 0.0000e+00 -1.0000e+00
       23  2    1    2    0    0 +0.0000000000e+00 +0.0000000000e+00 -2.6448676023e+02 2.7936141786e+02 8.9941956008e+01 0.0000e+00 0.0000e+00
      -13  1    3    3    0    0 -3.0708961706e+01 +2.8212363358e+01 -7.9954117648e+01 9.0175599273e+01 0.0000000000e+00 0.0000e+00 1.0000e+00
       13  1    3    3    0    0 +3.0708961706e+01 -2.8212363358e+01 -1.8453264258e+02 1.8918581859e+02 0.0000000000e+00 0.0000e+00 -1.0000e+00
<mgrwt>
<rscale>  0 0.89941956E+02</rscale>
<asrwt>0</asrwt>
<pdfrwt beam="2">  1        3 0.41834465E-01 0.89941956E+02</pdfrwt>
<pdfrwt beam="1">  1       -3 0.11442047E-02 0.89941956E+02</pdfrwt>
<totfact> 0.25777714E+04</totfact>
</mgrwt>
</event>
<event>
 4      1 +1.6944000e+03 6.52020600e+01 7.81860800e-03 1.37721300e-01
        2 -1    0    0  501    0 +0.0000000000e+00 +0.0000000000e+00 +5.5276504087e+01 5.5276504087e+01 0.0000000000e+00 0.0000e+00 1.0000e+00
       -2 -1    0    0    0  501 -0.0000000000e+00 -0.0000000000e+00 -1.9227467110e+01 1.9227467110e+01 0.0000000000e+00 0.0000e+00 -1.0000e+00
      -11  1    1    2    0    0 -9.8896934200e+00 -2.3967291262e+01 +4.0607366254e+01 4.8178784547e+01 0.0000000000e+00 0.0000e+00 1.0000e+00
       11  1    1    2    0    0 +9.8896934200e+00 +2.3967291262e+01 -4.5583292767e+00 2.6325186650e+01 0.0000000000e+00 0.0000e+00 -1.0000e+00
<mgrwt>
<rscale>  0 0.65202060E+02</rscale>
<asrwt>0</asrwt>
<pdfrwt beam="1">  1        2 0.85040775E-02 0.65202060E+02</pdfrwt>
<pdfrwt beam="2">  1       -2 0.29580719E-02 0.65202060E+02</pdfrwt>
<totfact> 0.26098685E+05</totfact>
</mgrwt>
</event>
<event>
 5      1 +1.6944000e+03 9.20097700e+01 7.81860800e-03 1.29805600e-01
       -2 -1    0    0    0  501 -0.0000000000e+00 +0.0000000000e+00 +3.0643384289e+01 3.0643384289e+01 0.0000000000e+00 0.0000e+00 1.0000e+00
        2 -1    0    0  501    0 +0.0000000000e+00 -0.0000000000e+00 -6.9067087597e+01 6.9067087597e+01 0.0000000000e+00 0.0000e+00 -1.0000e+00
       23  2    1    2    0    0 +0.0000000000e+00 +0.0000000000e+00 -3.8423703308e+01 9.9710471885e+01 9.2009767023e+01 0.0000e+00 0.0000e+00
      -13  1    3    3    0    0 -4.4702506955e+01 +2.3441770395e+00 -3.0713317291e+01 5.4287357212e+01 0.0000000000e+00 0.0000e+00 -1.0000e+00
       13  1    3    3    0    0 +4.4702506955e+01 -2.3441770395e+00 -7.7103860177e+00 4.5423114673e+01 0.0000000000e+00 0.0000e+00 1.0000e+00
<mgrwt>
<rscale>  0 0.92009767E+02</rscale>
<asrwt>0</asrwt>
<pdfrwt beam="2">  1        2 0.10625706E-01 0.92009767E+02</pdfrwt>
<pdfrwt beam="1">  1       -2 0.47143668E-02 0.92009767E+02</pdfrwt>
<totfact> 0.10743460E+05</totfact>
</mgrwt>
</event>
<event>
 5      1 +1.6944000e+03 9.14505000e+01 7.81860800e-03 1.29937700e-01
       -1 -1    0    0    0  501 -0.0000000000e+00 +0.0000000000e+00 +2.4164892652e+01 2.4164892652e+01 0.0000000000e+00 0.0000e+00 1.0000e+00
        1 -1    0    0  501    0 +0.0000000000e+00 -0.0000000000e+00 -8.6522145167e+01 8.6522145167e+01 0.0000000000e+00 0.0000e+00 -1.0000e+00
       23  2    1    2    0    0 +0.0000000000e+00 +0.0000000000e+00 -6.2357252515e+01 1.1068703782e+02 9.1450496991e+01 0.0000e+00 0.0000e+00
      -11  1    3    3    0    0 -4.4655637422e+01 +5.8628071858e+00 -2.1625306167e+01 4.9961508469e+01 0.0000000000e+00 0.0000e+00 1.0000e+00
       11  1    3    3    0    0 +4.4655637422e+01 -5.8628071858e+00 -4.0731946348e+01 6.0725529350e+01 0.0000000000e+00 0.0000e+00 -1.0000e+00
<mgrwt>
<rscale>  0 0.91450497E+02</rscale>
<asrwt>0</asrwt>
<pdfrwt beam="2">  1        1 0.13311099E-01 0.91450497E+02</pdfrwt>
<pdfrwt beam="1">  1       -1 0.37176758E-02 0.91450497E+02</pdfrwt>
<totfact> 0.10117473E+05</totfact>
</mgrwt>
</event>
<event>
 5      1 +1.6944000e+03 9.40365700e+01 7.81860800e-03 1.29336100e-01
       -2 -1    0    0    0  501 -0.0000000000e+00 +0.0000000000e+00 +5.5615241409e+01 5.5615241409e+01 0.0000000000e+00 0.0000e+00 1.0000e+00
        2 -1    0    0  501    0 +0.0000000000e+00 -0.0000000000e+00 -3.9750239081e+01 3.9750239081e+01 0.0000000000e+00 0.0000e+00 -1.0000e+00
       23  2    1    2    0    0 +0.0000000000e+00 +0.0000000000e+00 +1.5865002328e+01 9.5365480490e+01 9.4036570388e+01 0.0000e+00 0.0000e+00
      -13  1    3    3    0    0 -2.4597522658e+01 -1.5595017660e+01 -2.9500868343e+01 4.1455324504e+01 0.0000000000e+00 0.0000e+00 -1.0000e+00
       13  1    3    3    0    0 +2.4597522658e+01 +1.5595017660e+01 +4.5365870671e+01 5.3910155986e+01 0.0000000000e+00 0.0000e+00 1.0000e+00
<mgrwt>
<rscale>  0 0.94036570E+02</rscale>
<asrwt>0</asrwt>
<pdfrwt beam="2">  1        2 0.61154214E-02 0.94036570E+02</pdfrwt>
<pdfrwt beam="1">  1       -2 0.85561910E-02 0.94036570E+02</pdfrwt>
<totfact> 0.87047457E+04</totfact>
</mgrwt>
</event>
<event>
 5      1 +1.6944000e+03 8.74644900e+01 7.81860800e-03 1.30911100e-01
        1 -1    0    0  501    0 +0.0000000000e+00 +0.0000000000e+00 +1.3043329225e+02 1.3043329225e+02 0.0000000000e+00 0.0000e+00 -1.0000e+00
       -1 -1    0    0    0  501 -0.0000000000e+00 -0.0000000000e+00 -1.4662737786e+01 1.4662737786e+01 0.0000000000e+00 0.0000e+00 1.0000e+00
       23  2    1    2    0    0 +0.0000000000e+00 +0.0000000000e+00 +1.1577055446e+02 1.4509603004e+02 8.7464487946e+01 0.0000e+00 0.0000e+00
      -13  1    3    3    0    0 +5.6632031296e+00 +2.8050710135e+01 +3.0257550278e+00 2.8776195062e+01 0.0000000000e+00 0.0000e+00 1.0000e+00
       13  1    3    3    0    0 -5.6632031296e+00 -2.8050710135e+01 +1.1274479944e+02 1.1631983498e+02 0.0000000000e+00 0.0000e+00 -1.0000e+00
<mgrwt>
<rscale>  0 0.87464488E+02</rscale>
<asrwt>0</asrwt>
<pdfrwt beam="1">  1        1 0.20066660E-01 0.87464488E+02</pdfrwt>
<pdfrwt beam="2">  1       -1 0.22558059E-02 0.87464488E+02</pdfrwt>
<totfact> 0.12230612E+05</totfact>
</mgrwt>
</event>
<event>
 5      1 +1.6944000e+03 8.73360500e+01 7.81860800e-03 1.30943400e-01
        1 -1    0    0  501    0 +0.0000000000e+00 +0.0000000000e+00 +2.7616092324e+01 2.7616092324e+01 0.0000000000e+00 0.0000e+00 -1.0000e+00
       -1 -1    0    0    0  501 -0.0000000000e+00 -0.0000000000e+00 -6.9050192973e+01 6.9050192973e+01 0.0000000000e+00 0.0000e+00 1.0000e+00
       23  2    1    2    0    0 +0.0000000000e+00 +0.0000000000e+00 -4.1434100649e+01 9.6666285298e+01 8.7336052216e+01 0.0000e+00 0.0000e+00
      -11  1    3    3    0    0 -2.2235157301e+00 +1.0979839871e+01 -6.7432621188e+01 6.8356852664e+01 0.0000000000e+00 0.0000e+00 1.0000e+00
       11  1    3    3    0    0 +2.2235157301e+00 -1.0979839871e+01 +2.5998520539e+01 2.8309432633e+01 0.0000000000e+00 0.0000e+00 -1.0000e+00
<mgrwt>
<rscale>  0 0.87336052E+02</rscale>
<asrwt>0</asrwt>
<pdfrwt beam="1">  1        1 0.42486296E-02 0.87336052E+02</pdfrwt>
<pdfrwt beam="2">  1       -1 0.10623107E-01 0.87336052E+02</pdfrwt>
<totfact> 0.96770013E+04</totfact>
</mgrwt>
</event>
<event>
 4      1 +1.6944000e+03 3.05419300e+01 7.81860800e-03 1.59217400e-01
       -2 -1    0    0    0  501 -0.0000000000e+00 +0.0000000000e+00 +1.9345564693e+01 1.9345564693e+01 0.0000000000e+00 0.0000e+00 -1.0000e+00
        2 -1    0    0  501    0 +0.0000000000e+00 -0.0000000000e+00 -1.2054566707e+01 1.2054566707e+01 0.0000000000e+00 0.0000e+00 1.0000e+00
      -11  1    1    2    0    0 -1.2707631505e+01 +8.4685933646e+00 +3.6066478127e+00 1.5691044595e+01 0.0000000000e+00 0.0000e+00 1.0000e+00
       11  1    1    2    0    0 +1.2707631505e+01 -8.4685933646e+00 +3.6843501731e+00 1.5709086805e+01 0.0000000000e+00 0.0000e+00 -1.0000e+00
<mgrwt>
<rscale>  0 0.30541932E+02</rscale>
<asrwt>0</asrwt>
<pdfrwt beam="2">  1        2 0.18545487E-02 0.30541932E+02</pdfrwt>
<pdfrwt beam="1">  1       -2 0.29762407E-02 0.30541932E+02</pdfrwt>
<totfact> 0.14647303E+06</totfact>
</mgrwt>
</event>
<event>
 5      1 +1.6944000e+03 9.10635400e+01 7.81860800e-03 1.30029600e-01
        3 -1    0    0  501    0 +0.0000000000e+00 +0.0000000000e+00 +1.3134122035e+02 1.3134122035e+02 0.0000000000e+00 0.0000e+00 -1.0000e+00
       -3 -1    0    0    0  501 -0.0000000000e+00 -0.0000000000e+00 -1.5784399441e+01 1.5784399441e+01 0.0000000000e+00 0.0000e+00 1.0000e+00
       23  2    1    2    0    0 +0.0000000000e+00 +0.0000000000e+00 +1.1555682091e+02 1.4712561979e+02 9.1063544521e+01 0.0000e+00 0.0000e+00
      -11  1    3    3    0    0 -9.5005667137e+00 -4.4495912996e+01 +6.0574556507e+01 7.5758985851e+01 0.0000000000e+00 0.0000e+00 1.0000e+00
       11  1    3    3    0    0 +9.5005667137e+00 +4.4495912996e+01 +5.4982264404e+01 7.1366633942e+01 0.0000000000e+00 0.0000e+00 -1.0000e+00
<mgrwt>
<rscale>  0 0.91063545E+02</rscale>
<asrwt>0</asrwt>
<pdfrwt beam="1">  1        3 0.20206341E-01 0.91063545E+02</pdfrwt>
<pdfrwt beam="2">  1       -3 0.24283692E-02 0.91063545E+02</pdfrwt>
<totfact> 0.31590140E+04</totfact>
</mgrwt>
</event>
<event>
 5      1 +1.6944000e+03 9.11688700e+01 7.81860800e-03 1.30004600e-01
       -3 -1    0    0    0  501 -0.0000000000e+00 +0.0000000000e+00 +7.2701072270e+00 7.2701072270e+00 0.0000000000e+00 0.0000e+00 1.0000e+00
        3 -1    0    0  501    0 +0.0000000000e+00 -0.0000000000e+00 -2.8581980374e+02 2.8581980374e+02 0.0000000000e+00 0.0000e+00 -1.0000e+00
       23  2    1    2    0    0 +0.0000000000e+00 +0.0000000000e+00 -2.7854969651e+02 2.9308991096e+02 9.1168867949e+01 0.0000e+00 0.0000e+00
      -13  1    3    3    0    0 +1.7754032684e+01 -3.8449924100e+01 -8.5065776150e+01 9.5025199878e+01 0.0000000000e+00 0.0000e+00 1.0000e+00
       13  1    3    3    0    0 -1.7754032684e+01 +3.8449924100e+01 -1.9348392036e+02 1.9806471108e+02 0.0000000000e+00 0.0000e+00 -1.0000e+00
<mgrwt>
<rscale>  0 0.91168868E+02</rscale>
<asrwt>0</asrwt>
<pdfrwt beam="2">  1        3 0.43972267E-01 0.91168868E+02</pdfrwt>
<pdfrwt beam="1">  1       -3 0.11184783E-02 0.91168868E+02</pdfrwt>
<totfact> 0.24306761E+04</totfact>
</mgrwt>
</event>
<event>
 5      1 +1.6944000e+03 9.26898800e+01 7.81860800e-03 1.29646500e-01
        1 -1    0    0  501    0 +0.0000000000e+00 +0.0000000000e+00 +1.0404063093e+01 1.0404063093e+01 0.0000000000e+00 0.0000e+00 -1.0000e+00
       -1 -1    0    0    0  501 -0.0000000000e+00 -0.0000000000e+00 -2.0644370485e+02 2.0644370485e+02 0.0000000000e+00 0.0000e+00 1.0000e+00
       23  2    1    2    0    0 +0.0000000000e+00 +0.0000000000e+00 -1.9603964175e+02 2.1684776794e+02 9.2689877126e+01 0.0000e+00 0.0000e+00
      -13  1    3    3    0    0 -2.4442299770e+01 -3.9283580135e+01 -9.1730249807e+01 1.0273784315e+02 0.0000000000e+00 0.0000e+00 1.0000e+00
       13  1    3    3    0    0 +2.4442299770e+01 +3.9283580135e+01 -1.0430939195e+02 1.1410992478e+02 0.0000000000e+00 0.0000e+00 -1.0000e+00
<mgrwt>
<rscale>  0 0.92689877E+02</rscale>
<asrwt>0</asrwt>
<pdfrwt beam="1">  1        1 0.16006251E-02 0.92689877E+02</pdfrwt>
<pdfrwt beam="2">  1       -1 0.31760569E-01 0.92689877E+02</pdfrwt>
<totfact> 0.65898228E+04</totfact>
</mgrwt>
</event>
<event>
 4      1 +1.6944000e+03 5.19031000e+01 7.81860800e-03 1.43533900e-01
       -1 -1    0    0    0  501 -0.0000000000e+00 +0.0000000000e+00 +5.2590682788e+01 5.2590682788e+01 0.0000000000e+00 0.0000e+00 1.0000e+00
        1 -1    0    0  501    0 +0.0000000000e+00 -0.0000000000e+00 -1.2806124404e+01 1.2806124404e+01 0.0000000000e+00 0.0000e+00 -1.0000e+00
      -13  1    1    2    0    0 -1.4739566954e+01 +1.5733532934e+01 +1.6907534414e+00 2.1625391090e+01 0.0000000000e+00 0.0000e+00 -1.0000e+00
       13  1    1    2    0    0 +1.4739566954e+01 -1.5733532934e+01 +3.8093804942e+01 4.3771416102e+01 0.0000000000e+00 0.0000e+00 1.0000e+00
<mgrwt>
<rscale>  0 0.51903095E+02</rscale>
<asrwt>0</asrwt>
<pdfrwt beam="2">  1        1 0.19701730E-02 0.51903095E+02</pdfrwt>
<pdfrwt beam="1">  1       -1 0.80908742E-02 0.51903095E+02</pdfrwt>
<totfact> 0.37070552E+05</totfact>
</mgrwt>
</event>
<event>
 4      1 +1.6944000e+03 2.77121700e+01 7.81860800e-03 1.62484800e-01
       -4 -1    0    0    0  501 -0.0000000000e+00 +0.0000000000e+00 +6.7833337463e+01 6.7833337463e+01 0.0000000000e+00 0.0000e+00 1.0000e+00
        4 -1    0    0  501    0 +0.0000000000e+00 -0.0000000000e+00 -2.8303358130e+00 2.8303358130e+00 0.0000000000e+00 0.0000e+00 -1.0000e+00
      -13  1    1    2    0    0 -1.0859288178e+01 -2.8239904234e+00 +5.3231548021e+01 5.4401257029e+01 0.0000000000e+00 0.0000e+00 1.0000e+00
       13  1    1    2    0    0 +1.0859288178e+01 +2.8239904234e+00 +1.1771453629e+01 1.6262416246e+01 0.0000000000e+00 0.0000e+00 -1.0000e+00
<mgrwt>
<rscale>  0 0.27712172E+02</rscale>
<asrwt>0</asrwt>
<pdfrwt beam="2">  1        4 0.43543633E-03 0.27712172E+02</pdfrwt>
<pdfrwt beam="1">  1       -4 0.10435897E-01 0.27712172E+02</pdfrwt>
<totfact> 0.53966551E+05</totfact>
</mgrwt>
</event>
<event>
 4      1 +1.6944000e+03 4.11065300e+01 7.81860800e-03 1.50022300e-01
        2 -1    0    0  501    0 +0.0000000000e+00 +0.0000000000e+00 +2.0174011236e+02 2.0174011236e+02 0.0000000000e+00 0.0000e+00 -1.0000e+00
       -2 -1    0    0    0  501 -0.0000000000e+00 -0.0000000000e+00 -2.0939644377e+00 2.0939644377e+00 0.0000000000e+00 0.0000e+00 1.0000e+00
      -13  1    1    2    0    0 +1.2206670955e+01 +1.6304462119e+01 +1.1349169834e+02 1.1530483031e+02 0.0000000000e+00 0.0000e+00 -1.0000e+00
       13  1    1    2    0    0 -1.2206670955e+01 -1.6304462119e+01 +8.6154449581e+01 8.8529246486e+01 0.0000000000e+00 0.0000e+00 1.0000e+00
<mgrwt>
<rscale>  0 0.41106526E+02</rscale>
<asrwt>0</asrwt>
<pdfrwt beam="1">  1        2 0.31036925E-01 0.41106526E+02</pdfrwt>
<pdfrwt beam="2">  1       -2 0.32214853E-03 0.41106526E+02</pdfrwt>
<totfact> 0.11982531E+06</totfact>
</mgrwt>
</event>
<event>
 5      1 +1.6944000e+03 8.83263300e+01 7.81860800e-03 1.30695600e-01
        1 -1    0    0  501    0 +0.0000000000e+00 +0.0000000000e+00 +9.2612716190e+00 9.2612716190e+00 0.0000000000e+00 0.0000e+00 -1.0000e+00
       -1 -1    0    0    0  501 -0.0000000000e+00 -0.0000000000e+00 -2.1059584345e+02 2.1059584345e+02 0.0000000000e+00 0.0000e+00 1.0000e+00
       23  2    1    2    0    0 +0.0000000000e+00 +0.0000000000e+00 -2.0133457183e+02 2.1985711507e+02 8.8326333741e+01 0.0000e+00 0.0000e+00
      -13  1    3    3    0    0 +4.0958104365e+01 -1.4282239270e+01 -1.2131919198e+02 1.2884057984e+02 0.0000000000e+00 0.0000e+00 1.0000e+00
       13  1    3    3    0    0 -4.0958104365e+01 +1.4282239270e+01 -8.0015379852e+01 9.1016535227e+01 0.0000000000e+00 0.0000e+00 -1.0000e+00
<mgrwt>
<rscale>  0 0.88326334E+02</rscale>
<asrwt>0</asrwt>
<pdfrwt beam="1">  1        1 0.14248110E-02 0.88326334E+02</pdfrwt>
<pdfrwt beam="2">  1       -1 0.32399361E-01 0.88326334E+02</pdfrwt>
<totfact> 0.74281238E+04</totfact>
</mgrwt>
</event>
<event>
 5      1 +1.6944000e+03 9.03411400e+01 7.81860800e-03 1.30202800e-01
       -1 -1    0    0    0  501 -0.0000000000e+00 +0.0000000000e+00 +7.9583972624e+00 7.9583972624e+00 0.0000000000e+00 0.0000e+00 1.0000e+00
        1 -1    0    0  501    0 +0.0000000000e+00 -0.0000000000e+00 -2.5638082422e+02 2.5638082422e+02 0.0000000000e+00 0.0000e+00 -1.0000e+00
       23  2    1    2    0    0 +0.0000000000e+00 +0.0000000000e+00 -2.4842242696e+02 2.6433922149e+02 9.0341141229e+01 0.0000e+00 0.0000e+00
      -11  1    3    3    0    0 +2.9004711770e+01 +2.0194746033e+01 -4.1903420281e+01 5.4817859347e+01 0.0000000000e+00 0.0000e+00 1.0000e+00
       11  1    3    3    0    0 -2.9004711770e+01 -2.0194746033e+01 -2.0651900668e+02 2.0952136214e+02 0.0000000000e+00 0.0000e+00 -1.0000e+00
<mgrwt>
<rscale>  0 0.90341141E+02</rscale>
<asrwt>0</asrwt>
<pdfrwt beam="2">  1        1 0.39443195E-01 0.90341141E+02</pdfrwt>
<pdfrwt beam="1">  1       -1 0.12243691E-02 0.90341141E+02</pdfrwt>
<totfact> 0.12736872E+05</totfact>
</mgrwt>
</event>
<event>
 5      1 +1.6944000e+03 9.05719700e+01 7.81860800e-03 1.30147200e-01
       -2 -1    0    0    0  501 -0.0000000000e+00 +0.0000000000e+00 +2.9620211087e+02 2.9620211087e+02 0.0000000000e+00 0.0000e+00 1.0000e+00
        2 -1    0    0  501    0 +0.0000000000e+00 -0.0000000000e+00 -6.9237191684e+00 6.9237191684e+00 0.0000000000e+00 0.0000e+00 -1.0000e+00
       23  2    1    2    0    0 +0.0000000000e+00 +0.0000000000e+00 +2.8927839170e+02 3.0312583004e+02 9.0571965480e+01 0.0000e+00 0.0000e+00
      -11  1    3    3    0    0 -3.8671631269e+01 +8.1467189540e+00 +2.1864471405e+02 2.2218770235e+02 0.0000000000e+00 0.0000e+00 1.0000e+00
       11  1    3    3    0    0 +3.8671631269e+01 -8.1467189540e+00 +7.0633677653e+01 8.0938127687e+01 0.0000000000e+00 0.0000e+00 -1.0000e+00
<mgrwt>
<rscale>  0 0.90571965E+02</rscale>
<asrwt>0</asrwt>
<pdfrwt beam="2">  1        2 0.10651878E-02 0.90571965E+02</pdfrwt>
<pdfrwt beam="1">  1       -2 0.45569546E-01 0.90571965E+02</pdfrwt>
<totfact> 0.52253827E+04</totfact>
</mgrwt>
</event>
<event>
 5      1 +1.6944000e+03 9.65443200e+01 7.81860800e-03 1.28773500e-01
       -1 -1    0    0    0  501 -0.0000000000e+00 +0.0000000000e+00 +1.0674062239e+02 1.0674062239e+02 0.0000000000e+00 0.0000e+00 1.0000e+00
        1 -1    0    0  501    0 +0.0000000000e+00 -0.0000000000e+00 -2.1830500550e+01 2.1830500550e+01 0.0000000000e+00 0.0000e+00 -1.0000e+00
       23  2    1    2    0    0 +0.0000000000e+00 +0.0000000000e+00 +8.4910121838e+01 1.2857112294e+02 9.6544315540e+01 0.0000e+00 0.0000e+00
      -11  1    3    3    0    0 -3.7705738696e+01 -2.8597711766e+01 +5.5134473003e+01 7.2659218012e+01 0.0000000000e+00 0.0000e+00 1.0000e+00
       11  1    3    3    0    0 +3.7705738696e+01 +2.8597711766e+01 +2.9775648835e+01 5.5911904926e+01 0.0000000000e+00 0.0000e+00 -1.0000e+00
<mgrwt>
<rscale>  0 0.96544316E+02</rscale>
<asrwt>0</asrwt>
<pdfrwt beam="2">  1        1 0.33585386E-02 0.96544316E+02</pdfrwt>
<pdfrwt beam="1">  1       -1 0.16421634E-01 0.96544316E+02</pdfrwt>
<totfact> 0.69331754E+04</totfact>
</mgrwt>
</event>
<event>
 4      1 +1.6944000e+03 2.21208600e+01 7.81860800e-03 1.70617000e-01
       -2 -1    0    0    0  501 -0.0000000000e+00 +0.0000000000e+00 +4.2856100291e+01 4.2856100291e+01 0.0000000000e+00 0.0000e+00 -1.0000e+00
        2 -1    0    0  501    0 +0.0000000000e+00 -0.0000000000e+00 -2.8545079203e+00 2.8545079203e+00 0.0000000000e+00 0.0000e+00 1.0000e+00
      -13  1    1    2    0    0 -1.0253988783e+01 -3.1153136704e+00 +2.5653688320e+01 2.7802179584e+01 0.0000000000e+00 0.0000e+00 -1.0000e+00
       13  1    1    2    0    0 +1.0253988783e+01 +3.1153136704e+00 +1.4347904051e+01 1.7908428627e+01 0.0000000000e+00 0.0000e+00 1.0000e+00
<mgrwt>
<rscale>  0 0.22120857E+02</rscale>
<asrwt>0</asrwt>
<pdfrwt beam="2">  1        2 0.43915510E-03 0.22120857E+02</pdfrwt>
<pdfrwt beam="1">  1       -2 0.65932457E-02 0.22120857E+02</pdfrwt>
<totfact> 0.27725156E+06</totfact>
</mgrwt>
</event>
<event>
 5      1 +1.6944000e+03 9.41259200e+01 7.81860800e-03 1.29315700e-01
        1 -1    0    0  501    0 +0.0000000000e+00 +0.0000000000e+00 +7.7852957033e+00 7.7852957033e+00 0.0000000000e+00 0.0000e+00 -1.0000e+00
       -1 -1    0    0    0  501 -0.0000000000e+00 -0.0000000000e+00 -2.8450074419e+02 2.8450074419e+02 0.0000000000e+00 0.0000e+00 1.0000e+00
       23  2    1    2    0    0 +0.0000000000e+00 +0.0000000000e+00 -2.7671544848e+02 2.9228603989e+02 9.4125924618e+01 0.0000e+00 0.0000e+00
      -13  1    3    3    0    0 +3.7916082455e+01 -2.0079693474e+01 -7.8296787067e+01 8.9281634527e+01 0.0000000000e+00 0.0000e+00 -1.0000e+00
       13  1    3    3    0    0 -3.7916082455e+01 +2.0079693474e+01 -1.9841866142e+02 2.0300440536e+02 0.0000000000e+00 0.0000e+00 1.0000e+00
<mgrwt>
<rscale>  0 0.94125925E+02</rscale>
<asrwt>0</asrwt>
<pdfrwt beam="1">  1        1 0.11977379E-02 0.94125925E+02</pdfrwt>
<pdfrwt beam="2">  1       -1 0.43769341E-01 0.94125925E+02</pdfrwt>
<totfact> 0.56891811E+04</totfact>
</mgrwt>
</event>
<event>
 5      1 +1.6944000e+03 9.27060100e+01 7.81860800e-03 1.29642800e-01
       -2 -1    0    0    0  501 -0.0000000000e+00 +0.0000000000e+00 +3.8012105962e+01 3.8012105962e+01 0.0000000000e+00 0.0000e+00 1.0000e+00
        2 -1    0    0  501    0 +0.0000000000e+00 -0.0000000000e+00 -5.6524123836e+01 5.6524123836e+01 0.0000000000e+00 0.0000e+00 -1.0000e+00
       23  2    1    2    0    0 +0.0000000000e+00 +0.0000000000e+00 -1.8512017874e+01 9.4536229799e+01 9.2706008105e+01 0.0000e+00 0.0000e+00
      -13  1    3    3    0    0 -3.3342485954e+01 +2.7495344416e+00 +2.3460392959e+01 4.0861612144e+01 0.0000000000e+00 0.0000e+00 1.0000e+00
       13  1    3    3    0    0 +3.3342485954e+01 -2.7495344416e+00 -4.1972410833e+01 5.3674617655e+01 0.0000000000e+00 0.0000e+00 -1.0000e+00
<mgrwt>
<rscale>  0 0.92706008E+02</rscale>
<asrwt>0</asrwt>
<pdfrwt beam="2">  1        2 0.86960190E-02 0.92706008E+02</pdfrwt>
<pdfrwt beam="1">  1       -2 0.58480163E-02 0.92706008E+02</pdfrwt>
<totfact> 0.99581537E+04</totfact>
</mgrwt>
</event>
<event>
 4      1 +1.6944000e+03 2.28232500e+01 7.81860800e-03 1.69439100e-01
       -2 -1    0    0    0  501 -0.0000000000e+00 +0.0000000000e+00 +2.6944690397e+00 2.6944690397e+00 0.0000000000e+00 0.0000e+00 -1.0000e+00
        2 -1    0    0  501    0 +0.0000000000e+00 -0.0000000000e+00 -4.8330557042e+01 4.8330557042e+01 0.0000000000e+00 0.0000e+00 1.0000e+00
      -11  1    1    2    0    0 +1.0926220169e+01 -2.7114850447e+00 -2.6995050909e+01 2.9248371098e+01 0.0000000000e+00 0.0000e+00 1.0000e+00
       11  1    1    2    0    0 -1.0926220169e+01 +2.7114850447e+00 -1.8641037093e+01 2.1776654983e+01 0.0000000000e+00 0.0000e+00 -1.0000e+00
<mgrwt>
<rscale>  0 0.22823250E+02</rscale>
<asrwt>0</asrwt>
<pdfrwt beam="2">  1        2 0.74354700E-02 0.22823250E+02</pdfrwt>
<pdfrwt beam="1">  1       -2 0.41453372E-03 0.22823250E+02</pdfrwt>
<totfact> 0.34219346E+06</totfact>
</mgrwt>
</event>
<event>
 5      1 +1.6944000e+03 9.07868200e+01 7.81860800e-03 1.30095700e-01
        2 -1    0    0  501    0 +0.0000000000e+00 +0.0000000000e+00 +2.9995182584e+02 2.9995182584e+02 0.0000000000e+00 0.0000e+00 -1.0000e+00
       -2 -1    0    0    0  501 -0.0000000000e+00 -0.0000000000e+00 -6.8696417801e+00 6.8696417801e+00 0.0000000000e+00 0.0000e+00 1.0000e+00
       23  2    1    2    0    0 +0.0000000000e+00 +0.0000000000e+00 +2.9308218406e+02 3.0682146762e+02 9.0786818312e+01 0.0000e+00 0.0000e+00
      -11  1    3    3    0    0 +3.8294540894e+00 -4.4976343866e+01 +1.3032425162e+02 1.3792007391e+02 0.0000000000e+00 0.0000e+00 -1.0000e+00
       11  1    3    3    0    0 -3.8294540894e+00 +4.4976343866e+01 +1.6275793244e+02 1.6890139371e+02 0.0000000000e+00 0.0000e+00 1.0000e+00
<mgrwt>
<rscale>  0 0.90786818E+02</rscale>
<asrwt>0</asrwt>
<pdfrwt beam="1">  1        2 0.46146424E-01 0.90786818E+02</pdfrwt>
<pdfrwt beam="2">  1       -2 0.10568682E-02 0.90786818E+02</pdfrwt>
<totfact> 0.18171518E+05</totfact>
</mgrwt>
</event>
<event>
 5      1 +1.6944000e+03 9.74186300e+01 7.81860800e-03 1.28582000e-01
        2 -1    0    0  501    0 +0.0000000000e+00 +0.0000000000e+00 +4.8562848092e+01 4.8562848092e+01 0.0000000000e+00 0.0000e+00 -1.0000e+00
       -2 -1    0    0    0  501 -0.0000000000e+00 -0.0000000000e+00 -4.8856221791e+01 4.8856221791e+01 0.0000000000e+00 0.0000e+00 1.0000e+00
       23  2    1    2    0    0 +0.0000000000e+00 +0.0000000000e+00 -2.9337369890e-01 9.7419069883e+01 9.7418628140e+01 0.0000e+00 0.0000e+00
      -11  1    3    3    0    0 +1.2920455622e+01 +3.6051124414e+01 +2.9952877075e+01 4.8618891288e+01 0.0000000000e+00 0.0000e+00 -1.0000e+00
       11  1    3    3    0    0 -1.2920455622e+01 -3.6051124414e+01 -3.0246250774e+01 4.8800178595e+01 0.0000000000e+00 0.0000e+00 1.0000e+00
<mgrwt>
<rscale>  0 0.97418628E+02</rscale>
<asrwt>0</asrwt>
<pdfrwt beam="1">  1        2 0.74712074E-02 0.97418628E+02</pdfrwt>
<pdfrwt beam="2">  1       -2 0.75163418E-02 0.97418628E+02</pdfrwt>
<totfact> 0.82899421E+04</totfact>
</mgrwt>
</event>
<event>
 5      1 +1.6944000e+03 9.10045500e+01 7.81860800e-03 1.30043700e-01
        1 -1    0    0  501    0 +0.0000000000e+00 +0.0000000000e+00 +3.5449708114e+01 3.5449708114e+01 0.0000000000e+00 0.0000e+00 -1.0000e+00
       -1 -1    0    0    0  501 -0.0000000000e+00 -0.0000000000e+00 -5.8405475426e+01 5.8405475426e+01 0.0000000000e+00 0.0000e+00 1.0000e+00
       23  2    1    2    0    0 +0.0000000000e+00 +0.0000000000e+00 -2.2955767312e+01 9.3855183540e+01 9.1004550570e+01 0.0000e+00 0.0000e+00
      -11  1    3    3    0    0 -2.2858920631e+01 +3.8369833594e+01 -2.5057984980e+00 4.4733135466e+01 0.0000000000e+00 0.0000e+00 1.0000e+00
       11  1    3    3    0    0 +2.2858920631e+01 -3.8369833594e+01 -2.0449968814e+01 4.9122048074e+01 0.0000000000e+00 0.0000e+00 -1.0000e+00
<mgrwt>
<rscale>  0 0.91004551E+02</rscale>
<asrwt>0</asrwt>
<pdfrwt beam="1">  1        1 0.54538013E-02 0.91004551E+02</pdfrwt>
<pdfrwt beam="2">  1       -1 0.89854576E-02 0.91004551E+02</pdfrwt>
<totfact> 0.89480342E+04</totfact>
</mgrwt>
</event>
<event>
 5      1 +1.6944000e+03 9.94828100e+01 7.81860800e-03 1.28138700e-01
       -4 -1    0    0    0  501 -0.0000000000e+00 +0.0000000000e+00 +4.0448807092e+02 4.0448807092e+02 0.0000000000e+00 0.0000e+00 -1.0000e+00
        4 -1    0    0  501    0 +0.0000000000e+00 -0.0000000000e+00 -6.1168857058e+00 6.1168857058e+00 0.0000000000e+00 0.0000e+00 1.0000e+00
       23  2    1    2    0    0 +0.0000000000e+00 +0.0000000000e+00 +3.9837118522e+02 4.1060495663e+02 9.9482808549e+01 0.0000e+00 0.0000e+00
      -11  1    3    3    0    0 -4.5518467011e+01 +1.0451547160e+01 +1.2853093357e+02 1.3675293987e+02 0.0000000000e+00 0.0000e+00 1.0000e+00
       11  1    3    3    0    0 +4.5518467011e+01 -1.0451547160e+01 +2.6984025165e+02 2.7385201677e+02 0.0000000000e+00 0.0000e+00 -1.0000e+00
<mgrwt>
<rscale>  0 0.99482809E+02</rscale>
<asrwt>0</asrwt>
<pdfrwt beam="2">  1        4 0.94105966E-03 0.99482809E+02</pdfrwt>
<pdfrwt beam="1">  1       -4 0.62228913E-01 0.99482809E+02</pdfrwt>
<totfact> 0.11817422E+04</totfact>
</mgrwt>
</event>
<event>
 5      1 +1.6944000e+03 1.12849000e+02 7.81860800e-03 1.25538300e-01
        1 -1    0    0  501    0 +0.0000000000e+00 +0.0000000000e+00 +2.2920418479e+01 2.2920418479e+01 0.0000000000e+00 0.0000e+00 -1.0000e+00
       -1 -1    0    0    0  501 -0.0000000000e+00 -0.0000000000e+00 -1.3890340733e+02 1.3890340733e+02 0.0000000000e+00 0.0000e+00 1.0000e+00
       23  2    1    2    0    0 +0.0000000000e+00 +0.0000000000e+00 -1.1598298886e+02 1.6182382581e+02 1.1284900042e+02 0.0000e+00 0.0000e+00
      -11  1    3    3    0    0 +1.4548000027e+01 -5.4484662381e+01 -5.5308184327e+01 7.8988720670e+01 0.0000000000e+00 0.0000e+00 1.0000e+00
       11  1    3    3    0    0 -1.4548000027e+01 +5.4484662381e+01 -6.0674804529e+01 8.2835105144e+01 0.0000000000e+00 0.0000e+00 -1.0000e+00
<mgrwt>
<rscale>  0 0.11284900E+03</rscale>
<asrwt>0</asrwt>
<pdfrwt beam="1">  1        1 0.35262182E-02 0.11284900E+03</pdfrwt>
<pdfrwt beam="2">  1       -1 0.21369755E-01 0.11284900E+03</pdfrwt>
<totfact> 0.43679910E+04</totfact>
</mgrwt>
</event>
<event>
 4      1 +1.6944000e+03 5.67431400e+01 7.81860800e-03 1.41203100e-01
        4 -1    0    0  501    0 +0.0000000000e+00 +0.0000000000e+00 +1.1056491210e+01 1.1056491210e+01 0.0000000000e+00 0.0000e+00 1.0000e+00
       -4 -1    0    0    0  501 -0.0000000000e+00 -0.0000000000e+00 -7.2803016191e+01 7.2803016191e+01 0.0000000000e+00 0.0000e+00 -1.0000e+00
      -13  1    1    2    0    0 -1.6746537131e+01 -1.4822094155e+00 +2.9020983472e+00 1.7060645517e+01 0.0000000000e+00 0.0000e+00 1.0000e+00
       13  1    1    2    0    0 +1.6746537131e+01 +1.4822094155e+00 -6.4648623328e+01 6.6798861883e+01 0.0000000000e+00 0.0000e+00 -1.0000e+00
<mgrwt>
<rscale>  0 0.56743137E+02</rscale>
<asrwt>0</asrwt>
<pdfrwt beam="1">  1        4 0.17009987E-02 0.56743137E+02</pdfrwt>
<pdfrwt beam="2">  1       -4 0.11200464E-01 0.56743137E+02</pdfrwt>
<totfact> 0.95300818E+04</totfact>
</mgrwt>
</event>
<event>
 4      1 +1.6944000e+03 2.24962800e+01 7.81860800e-03 1.69980800e-01
       -1 -1    0    0    0  501 -0.0000000000e+00 +0.0000000000e+00 +2.1286167026e+01 2.1286167026e+01 0.0000000000e+00 0.0000e+00 1.0000e+00
        1 -1    0    0  501    0 +0.0000000000e+00 -0.0000000000e+00 -5.9437988585e+00 5.9437988585e+00 0.0000000000e+00 0.0000e+00 -1.0000e+00
      -13  1    1    2    0    0 +3.3236780411e-01 -1.1229196330e+01 +6.9914311138e+00 1.3231985021e+01 0.0000000000e+00 0.0000e+00 1.0000e+00
       13  1    1    2    0    0 -3.3236780411e-01 +1.1229196330e+01 +8.3509370535e+00 1.3997980863e+01 0.0000000000e+00 0.0000e+00 -1.0000e+00
<mgrwt>
<rscale>  0 0.22496284E+02</rscale>
<asrwt>0</asrwt>
<pdfrwt beam="2">  1        1 0.91443060E-03 0.22496284E+02</pdfrwt>
<pdfrwt beam="1">  1       -1 0.32747949E-02 0.22496284E+02</pdfrwt>
<totfact> 0.28718263E+06</totfact>
</mgrwt>
</event>
<event>
 5      1 +1.6944000e+03 9.19734800e+01 7.81860800e-03 1.29814200e-01
        3 -1    0    0  501    0 +0.0000000000e+00 +0.0000000000e+00 +1.7431483248e+01 1.7431483248e+01 0.0000000000e+00 0.0000e+00 -1.0000e+00
       -3 -1    0    0    0  501 -0.0000000000e+00 -0.0000000000e+00 -1.2131959375e+02 1.2131959375e+02 0.0000000000e+00 0.0000e+00 1.0000e+00
       23  2    1    2    0    0 +0.0000000000e+00 +0.0000000000e+00 -1.0388811050e+02 1.3875107699e+02 9.1973484572e+01 0.0000e+00 0.0000e+00
      -11  1    3    3    0    0 -2.2934301459e+01 +3.1868167655e+01 -8.8062887212e+01 9.6419056193e+01 0.0000000000e+00 0.0000e+00 1.0000e+00
       11  1    3    3    0    0 +2.2934301459e+01 -3.1868167655e+01 -1.5825223286e+01 4.2332020801e+01 0.0000000000e+00 0.0000e+00 -1.0000e+00
<mgrwt>
<rscale>  0 0.91973485E+02</rscale>
<asrwt>0</asrwt>
<pdfrwt beam="1">  1        3 0.26817666E-02 0.91973485E+02</pdfrwt>
<pdfrwt beam="2">  1       -3 0.18664553E-01 0.91973485E+02</pdfrwt>
<totfact> 0.31263487E+04</totfact>
</mgrwt>
</event>
<event>
 5      1 +1.6944000e+03 9.17869400e+01 7.81860800e-03 1.29858100e-01
        2 -1    0    0  501    0 +0.0000000000e+00 +0.0000000000e+00 +2.0624554370e+01 2.0624554370e+01 0.0000000000e+00 0.0000e+00 -1.0000e+00
       -2 -1    0    0    0  501 -0.0000000000e+00 -0.0000000000e+00 -1.0212151245e+02 1.0212151245e+02 0.0000000000e+00 0.0000e+00 1.0000e+00
       23  2    1    2    0    0 +0.0000000000e+00 +0.0000000000e+00 -8.1496958079e+01 1.2274606682e+02 9.1786942117e+01 0.0000e+00 0.0000e+00
      -13  1    3    3    0    0 -2.9862050769e+01 +4.9217331773e-01 +5.8505120986e+00 3.0433744471e+01 0.0000000000e+00 0.0000e+00 -1.0000e+00
       13  1    3    3    0    0 +2.9862050769e+01 -4.9217331773e-01 -8.7347470177e+01 9.2312322347e+01 0.0000000000e+00 0.0000e+00 1.0000e+00
<mgrwt>
<rscale>  0 0.91786942E+02</rscale>
<asrwt>0</asrwt>
<pdfrwt beam="1">  1        2 0.31730083E-02 0.91786942E+02</pdfrwt>
<pdfrwt beam="2">  1       -2 0.15711002E-01 0.91786942E+02</pdfrwt>
<totfact> 0.77997944E+04</totfact>
</mgrwt>
</event>
<event>
 5      1 +1.6944000e+03 9.30087000e+01 7.81860800e-03 1.29572500e-01
       -2 -1    0    0    0  501 -0.0000000000e+00 +0.0000000000e+00 +3.2829248033e+01 3.2829248033e+01 0.0000000000e+00 0.0000e+00 -1.0000e+00
        2 -1    0    0  501    0 +0.0000000000e+00 -0.0000000000e+00 -6.5875844097e+01 6.5875844097e+01 0.0000000000e+00 0.0000e+00 1.0000e+00
       23  2    1    2    0    0 +0.0000000000e+00 +0.0000000000e+00 -3.3046596064e+01 9.8705092130e+01 9.3008696911e+01 0.0000e+00 0.0000e+00
      -11  1    3    3    0    0 -2.0082573356e+01 +7.0185513478e+00 +2.7362580595e+01 3.4659495559e+01 0.0000000000e+00 0.0000e+00 -1.0000e+00
       11  1    3    3    0    0 +2.0082573356e+01 -7.0185513478e+00 -6.0409176658e+01 6.4045596571e+01 0.0000000000e+00 0.0000e+00 1.0000e+00
<mgrwt>
<rscale>  0 0.93008697E+02</rscale>
<asrwt>0</asrwt>
<pdfrwt beam="2">  1        2 0.10134745E-01 0.93008697E+02</pdfrwt>
<pdfrwt beam="1">  1       -2 0.50506536E-02 0.93008697E+02</pdfrwt>
<totfact> 0.10286468E+05</totfact>
</mgrwt>
</event>
<event>
 4      1 +1.6944000e+03 3.10412600e+01 7.81860800e-03 1.58685600e-01
        2 -1    0    0  501    0 +0.0000000000e+00 +0.0000000000e+00 +3.8643220184e+00 3.8643220184e+00 0.0000000000e+00 0.0000e+00 1.0000e+00
       -2 -1    0    0    0  501 -0.0000000000e+00 -0.0000000000e+00 -6.2336906468e+01 6.2336906468e+01 0.0000000000e+00 0.0000e+00 -1.0000e+00
      -11  1    1    2    0    0 +1.1174050334e+01 -1.9109976803e+00 -6.6279603074e+00 1.3131685758e+01 0.0000000000e+00 0.0000e+00 1.0000e+00
       11  1    1    2    0    0 -1.1174050334e+01 +1.9109976803e+00 -5.1844624142e+01 5.3069542728e+01 0.0000000000e+00 0.0000e+00 -1.0000e+00
<mgrwt>
<rscale>  0 0.31041255E+02</rscale>
<asrwt>0</asrwt>
<pdfrwt beam="1">  1        2 0.59451109E-03 0.31041255E+02</pdfrwt>
<pdfrwt beam="2">  1       -2 0.95902932E-02 0.31041255E+02</pdfrwt>
<totfact> 0.12140523E+06</totfact>
</mgrwt>
</event>
<event>
 5      1 +1.6944000e+03 9.11291000e+01 7.81860800e-03 1.30014000e-01
       -1 -1    0    0    0  501 -0.0000000000e+00 +0.0000000000e+00 +2.2476021861e+01 2.2476021861e+01 0.0000000000e+00 0.0000e+00 1.0000e+00
        1 -1    0    0  501    0 +0.0000000000e+00 -0.0000000000e+00 -9.2370803841e+01 9.2370803841e+01 0.0000000000e+00 0.0000e+00 -1.0000e+00
       23  2    1    2    0    0 +0.0000000000e+00 +0.0000000000e+00 -6.9894781980e+01 1.1484682570e+02 9.1129099774e+01 0.0000e+00 0.0000e+00
      -11  1    3    3    0    0 -1.3751488145e+01 +1.4215628833e+01 +1.6784008013e+01 2.5940132118e+01 0.0000000000e+00 0.0000e+00 1.0000e+00
       11  1    3    3    0    0 +1.3751488145e+01 -1.4215628833e+01 -8.6678789993e+01 8.8906693583e+01 0.0000000000e+00 0.0000e+00 -1.0000e+00
<mgrwt>
<rscale>  0 0.91129100E+02</rscale>
<asrwt>0</asrwt>
<pdfrwt beam="2">  1        1 0.14210893E-01 0.91129100E+02</pdfrwt>
<pdfrwt beam="1">  1       -1 0.34578495E-02 0.91129100E+02</pdfrwt>
<totfact> 0.10324326E+05</totfact>
</mgrwt>
</event>
<event>
 4      1 +1.6944000e+03 2.16474300e+01 7.81860800e-03 1.71442200e-01
       -2 -1    0    0    0  501 -0.0000000000e+00 +0.0000000000e+00 +2.4828017199e+01 2.4828017199e+01 0.0000000000e+00 0.0000e+00 1.0000e+00
        2 -1    0    0  501    0 +0.0000000000e+00 -0.0000000000e+00 -4.7185741951e+00 4.7185741951e+00 0.0000000000e+00 0.0000e+00 -1.0000e+00
      -13  1    1    2    0    0 -7.4809686314e+00 +7.7916013754e+00 +1.0999265763e+01 1.5416153573e+01 0.0000000000e+00 0.0000e+00 1.0000e+00
       13  1    1    2    0    0 +7.4809686314e+00 -7.7916013754e+00 +9.1101772403e+00 1.4130437821e+01 0.0000000000e+00 0.0000e+00 -1.0000e+00
<mgrwt>
<rscale>  0 0.21647433E+02</rscale>
<asrwt>0</asrwt>
<pdfrwt beam="2">  1        2 0.72593451E-03 0.21647433E+02</pdfrwt>
<pdfrwt beam="1">  1       -2 0.38196949E-02 0.21647433E+02</pdfrwt>
<totfact> 0.30884304E+06</totfact>
</mgrwt>
</event>
<event>
 5      1 +1.6944000e+03 8.69924700e+01 7.81860800e-03 1.31030300e-01
        2 -1    0    0  501    0 +0.0000000000e+00 +0.0000000000e+00 +1.6566749767e+01 1.6566749767e+01 0.0000000000e+00 0.0000e+00 1.0000e+00
       -2 -1    0    0    0  501 -0.0000000000e+00 -0.0000000000e+00 -1.1419999022e+02 1.1419999022e+02 0.0000000000e+00 0.0000e+00 -1.0000e+00
       23  2    1    2    0    0 +0.0000000000e+00 +0.0000000000e+00 -9.7633240449e+01 1.3076673998e+02 8.6992474647e+01 0.0000e+00 0.0000e+00
      -13  1    3    3    0    0 +2.6174807468e+01 +2.2832572377e+01 -9.4605560010e+00 3.5999292037e+01 0.0000000000e+00 0.0000e+00 1.0000e+00
       13  1    3    3    0    0 -2.6174807468e+01 -2.2832572377e+01 -8.8172684448e+01 9.4767447946e+01 0.0000000000e+00 0.0000e+00 -1.0000e+00
<mgrwt>
<rscale>  0 0.86992475E+02</rscale>
<asrwt>0</asrwt>
<pdfrwt beam="1">  1        2 0.25487307E-02 0.86992475E+02</pdfrwt>
<pdfrwt beam="2">  1       -2 0.17569229E-01 0.86992475E+02</pdfrwt>
<totfact> 0.86178195E+04</totfact>
</mgrwt>
</event>
<event>
 4      1 +1.6944000e+03 3.65149600e+01 7.81860800e-03 1.53554500e-01
       -2 -1    0    0    0  501 -0.0000000000e+00 +0.0000000000e+00 +2.9113538672e+00 2.9113538672e+00 0.0000000000e+00 0.0000e+00 -1.0000e+00
        2 -1    0    0  501    0 +0.0000000000e+00 -0.0000000000e+00 -1.1449505276e+02 1.1449505276e+02 0.0000000000e+00 0.0000e+00 1.0000e+00
      -11  1    1    2    0    0 -3.7712957805e+00 +1.4789993262e+01 -8.8004082408e+01 8.9317887867e+01 0.0000000000e+00 0.0000e+00 1.0000e+00
       11  1    1    2    0    0 +3.7712957805e+00 -1.4789993262e+01 -2.3579616484e+01 2.8088518759e+01 0.0000000000e+00 0.0000e+00 -1.0000e+00
<mgrwt>
<rscale>  0 0.36514962E+02</rscale>
<asrwt>0</asrwt>
<pdfrwt beam="2">  1        2 0.17614623E-01 0.36514962E+02</pdfrwt>
<pdfrwt beam="1">  1       -2 0.44790060E-03 0.36514962E+02</pdfrwt>
<totfact> 0.13513155E+06</totfact>
</mgrwt>
</event>
<event>
 4      1 +1.6944000e+03 2.72759000e+01 7.81860800e-03 1.63031200e-01
       -2 -1    0    0    0  501 -0.0000000000e+00 +0.0000000000e+00 +7.0840783711e+01 7.0840783711e+01 0.0000000000e+00 0.0000e+00 -1.0000e+00
        2 -1    0    0  501    0 +0.0000000000e+00 -0.0000000000e+00 -2.6255163930e+00 2.6255163930e+00 0.0000000000e+00 0.0000e+00 1.0000e+00
      -11  1    1    2    0    0 -9.6102949575e+00 +9.5453069094e+00 +3.8385887285e+01 4.0705613812e+01 0.0000000000e+00 0.0000e+00 1.0000e+00
       11  1    1    2    0    0 +9.6102949575e+00 -9.5453069094e+00 +2.9829380033e+01 3.2760686292e+01 0.0000000000e+00 0.0000e+00 -1.0000e+00
<mgrwt>
<rscale>  0 0.27275897E+02</rscale>
<asrwt>0</asrwt>
<pdfrwt beam="2">  1        2 0.40392565E-03 0.27275897E+02</pdfrwt>
<pdfrwt beam="1">  1       -2 0.10898581E-01 0.27275897E+02</pdfrwt>
<totfact> 0.15984900E+06</totfact>
</mgrwt>
</event>
<event>
 5      1 +1.6944000e+03 8.91136600e+01 7.81860800e-03 1.30501200e-01
       -3 -1    0    0    0  501 -0.0000000000e+00 +0.0000000000e+00 +3.9018110310e+01 3.9018110310e+01 0.0000000000e+00 0.0000e+00 1.0000e+00
        3 -1    0    0  501    0 +0.0000000000e+00 -0.0000000000e+00 -5.0881788995e+01 5.0881788995e+01 0.0000000000e+00 0.0000e+00 -1.0000e+00
       23  2    1    2    0    0 +0.0000000000e+00 +0.0000000000e+00 -1.1863678685e+01 8.9899899305e+01 8.9113663504e+01 0.0000e+00 0.0000e+00
      -11  1    3    3    0    0 -3.4199812906e+01 +6.9239050373e+00 -3.3884490673e+01 4.8638733248e+01 0.0000000000e+00 0.0000e+00 -1.0000e+00
       11  1    3    3    0    0 +3.4199812906e+01 -6.9239050373e+00 +2.2020811988e+01 4.1261166057e+01 0.0000000000e+00 0.0000e+00 1.0000e+00
<mgrwt>
<rscale>  0 0.89113664E+02</rscale>
<asrwt>0</asrwt>
<pdfrwt beam="2">  1        3 0.78279675E-02 0.89113664E+02</pdfrwt>
<pdfrwt beam="1">  1       -3 0.60027863E-02 0.89113664E+02</pdfrwt>
<totfact> 0.37711403E+04</totfact>
</mgrwt>
</event>
<event>
 5      1 +1.6944000e+03 8.97864600e+01 7.81860800e-03 1.30337000e-01
       -2 -1    0    0    0  501 -0.0000000000e+00 +0.0000000000e+00 +4.7224132166e+00 4.7224132166e+00 0.0000000000e+00 0.0000e+00 1.0000e+00
        2 -1    0    0  501    0 +0.0000000000e+00 -0.0000000000e+00 -4.2677373661e+02 4.2677373661e+02 0.0000000000e+00 0.0000e+00 -1.0000e+00
       23  2    1    2    0    0 +0.0000000000e+00 +0.0000000000e+00 -4.2205132339e+02 4.3149614983e+02 8.9786456312e+01 0.0000e+00 0.0000e+00
      -11  1    3    3    0    0 -3.4688595142e+01 -2.8217239730e+01 -1.9186822583e+02 1.9700996760e+02 0.0000000000e+00 0.0000e+00 1.0000e+00
       11  1    3    3    0    0 +3.4688595142e+01 +2.8217239730e+01 -2.3018309756e+02 2.3448618222e+02 0.0000000000e+00 0.0000e+00 -1.0000e+00
<mgrwt>
<rscale>  0 0.89786456E+02</rscale>
<asrwt>0</asrwt>
<pdfrwt beam="2">  1        2 0.65657510E-01 0.89786456E+02</pdfrwt>
<pdfrwt beam="1">  1       -2 0.72652497E-03 0.89786456E+02</pdfrwt>
<totfact> 0.21274141E+05</totfact>
</mgrwt>
</event>
<event>
 5      1 +1.6944000e+03 9.51444100e+01 7.81860800e-03 1.29085100e-01
        2 -1    0    0  501    0 +0.0000000000e+00 +0.0000000000e+00 +1.2085250990e+02 1.2085250990e+02 0.0000000000e+00 0.0000e+00 -1.0000e+00
       -2 -1    0    0    0  501 -0.0000000000e+00 -0.0000000000e+00 -1.8726251381e+01 1.8726251381e+01 0.0000000000e+00 0.0000e+00 1.0000e+00
       23  2    1    2    0    0 +0.0000000000e+00 +0.0000000000e+00 +1.0212625852e+02 1.3957876128e+02 9.5144405623e+01 0.0000e+00 0.0000e+00
      -11  1    3    3    0    0 -2.5787196291e+01 +3.8493212818e+00 -7.3109599714e+00 2.7078532135e+01 0.0000000000e+00 0.0000e+00 1.0000e+00
       11  1    3    3    0    0 +2.5787196291e+01 -3.8493212818e+00 +1.0943721849e+02 1.1250022914e+02 0.0000000000e+00 0.0000e+00 -1.0000e+00
<mgrwt>
<rscale>  0 0.95144406E+02</rscale>
<asrwt>0</asrwt>
<pdfrwt beam="1">  1        2 0.18592693E-01 0.95144406E+02</pdfrwt>
<pdfrwt beam="2">  1       -2 0.28809618E-02 0.95144406E+02</pdfrwt>
<totfact> 0.11580380E+05</totfact>
</mgrwt>
</event>
<event>
 5      1 +1.6944000e+03 9.12116100e+01 7.81860800e-03 1.29994400e-01
        2 -1    0    0  501    0 +0.0000000000e+00 +0.0000000000e+00 +7.5690126615e+00 7.5690126615e+00 0.0000000000e+00 0.0000e+00 -1.0000e+00
       -2 -1    0    0    0  501 -0.0000000000e+00 -0.0000000000e+00 -2.7479003949e+02 2.7479003949e+02 0.0000000000e+00 0.0000e+00 1.0000e+00
       23  2    1    2    0    0 +0.0000000000e+00 +0.0000000000e+00 -2.6722102683e+02 2.8235905215e+02 9.1211606458e+01 0.0000e+00 0.0000e+00
      -13  1    3    3    0    0 +3.8302319911e+01 -1.1444997774e+01 -2.0156218630e+02 2.0548812772e+02 0.0000000000e+00 0.0000e+00 -1.0000e+00
       13  1    3    3    0    0 -3.8302319911e+01 +1.1444997774e+01 -6.5658840527e+01 7.6870924438e+01 0.0000000000e+00 0.0000e+00 1.0000e+00
<mgrwt>
<rscale>  0 0.91211606E+02</rscale>
<asrwt>0</asrwt>
<pdfrwt beam="1">  1        2 0.11644634E-02 0.91211606E+02</pdfrwt>
<pdfrwt beam="2">  1       -2 0.42275393E-01 0.91211606E+02</pdfrwt>
<totfact> 0.53455046E+04</totfact>
</mgrwt>
</event>
<event>
 5      1 +1.6944000e+03 9.14837100e+01 7.81860800e-03 1.29929800e-01
        1 -1    0    0  501    0 +0.0000000000e+00 +0.0000000000e+00 +1.0691642519e+02 1.0691642519e+02 0.0000000000e+00 0.0000e+00 -1.0000e+00
       -1 -1    0    0    0  501 -0.0000000000e+00 -0.0000000000e+00 -1.9569654403e+01 1.9569654403e+01 0.0000000000e+00 0.0000e+00 1.0000e+00
       23  2    1    2    0    0 +0.0000000000e+00 +0.0000000000e+00 +8.7346770788e+01 1.2648607959e+02 9.1483714200e+01 0.0000e+00 0.0000e+00
      -13  1    3    3    0    0 -7.0129937782e+00 -4.3192161186e+01 +6.2097513570e+01 7.5966084941e+01 0.0000000000e+00 0.0000e+00 1.0000e+00
       13  1    3    3    0    0 +7.0129937782e+00 +4.3192161186e+01 +2.5249257218e+01 5.0519994653e+01 0.0000000000e+00 0.0000e+00 -1.0000e+00
<mgrwt>
<rscale>  0 0.91483714E+02</rscale>
<asrwt>0</asrwt>
<pdfrwt beam="1">  1        1 0.16448680E-01 0.91483714E+02</pdfrwt>
<pdfrwt beam="2">  1       -1 0.30107161E-02 0.91483714E+02</pdfrwt>
<totfact> 0.10466683E+05</totfact>
</mgrwt>
</event>
<event>
 5      1 +1.6944000e+03 9.11794200e+01 7.81860800e-03 1.30002000e-01
        2 -1    0    0  501    0 +0.0000000000e+00 +0.0000000000e+00 +2.6208996205e+02 2.6208996205e+02 0.0000000000e+00 0.0000e+00 1.0000e+00
       -2 -1    0    0    0  501 -0.0000000000e+00 -0.0000000000e+00 -7.9301837286e+00 7.9301837286e+00 0.0000000000e+00 0.0000e+00 -1.0000e+00
       23  2    1    2    0    0 +0.0000000000e+00 +0.0000000000e+00 +2.5415977833e+02 2.7002014578e+02 9.1179417689e+01 0.0000e+00 0.0000e+00
      -11  1    3    3    0    0 -3.2354726715e+01 +2.2392977342e+01 +1.9526629918e+02 1.9919136872e+02 0.0000000000e+00 0.0000e+00 1.0000e+00
       11  1    3    3    0    0 +3.2354726715e+01 -2.2392977342e+01 +5.8893479146e+01 7.0828777068e+01 0.0000000000e+00 0.0000e+00 -1.0000e+00
<mgrwt>
<rscale>  0 0.91179418E+02</rscale>
<asrwt>0</asrwt>
<pdfrwt beam="1">  1        2 0.40321526E-01 0.91179418E+02</pdfrwt>
<pdfrwt beam="2">  1       -2 0.12200285E-02 0.91179418E+02</pdfrwt>
<totfact> 0.17081814E+05</totfact>
</mgrwt>
</event>
<event>
 5      1 +1.6944000e+03 9.52187800e+01 7.81860800e-03 1.29068400e-01
        2 -1    0    0  501    0 +0.0000000000e+00 +0.0000000000e+00 +2.2786623777e+01 2.2786623777e+01 0.0000000000e+00 0.0000e+00 1.0000e+00
       -2 -1    0    0    0  501 -0.0000000000e+00 -0.0000000000e+00 -9.9473000776e+01 9.9473000776e+01 0.0000000000e+00 0.0000e+00 -1.0000e+00
       23  2    1    2    0    0 +0.0000000000e+00 +0.0000000000e+00 -7.6686376999e+01 1.2225962455e+02 9.5218776396e+01 0.0000e+00 0.0000e+00
      -11  1    3    3    0    0 +4.4511936073e+01 -5.8937788916e-01 -6.0019148417e+01 7.4725885715e+01 0.0000000000e+00 0.0000e+00 -1.0000e+00
       11  1    3    3    0    0 -4.4511936073e+01 +5.8937788916e-01 -1.6667228582e+01 4.7533738837e+01 0.0000000000e+00 0.0000e+00 1.0000e+00
<mgrwt>
<rscale>  0 0.95218776E+02</rscale>
<asrwt>0</asrwt>
<pdfrwt beam="1">  1        2 0.35056343E-02 0.95218776E+02</pdfrwt>
<pdfrwt beam="2">  1       -2 0.15303539E-01 0.95218776E+02</pdfrwt>
<totfact> 0.71753205E+04</totfact>
</mgrwt>
</event>
<event>
 5      1 +1.6944000e+03 9.36057300e+01 7.81860800e-03 1.29434800e-01
        2 -1    0    0  501    0 +0.0000000000e+00 +0.0000000000e+00 +4.3932372021e+02 4.3932372021e+02 0.0000000000e+00 0.0000e+00 -1.0000e+00
       -2 -1    0    0    0  501 -0.0000000000e+00 -0.0000000000e+00 -4.9860912859e+00 4.9860912859e+00 0.0000000000e+00 0.0000e+00 1.0000e+00
       23  2    1    2    0    0 +0.0000000000e+00 +0.0000000000e+00 +4.3433762892e+02 4.4430981150e+02 9.3605730018e+01 0.0000e+00 0.0000e+00
      -13  1    3    3    0    0 -3.3804481538e+01 -3.1474839639e+01 +2.5303624540e+02 2.5721732055e+02 0.0000000000e+00 0.0000e+00 1.0000e+00
       13  1    3    3    0    0 +3.3804481538e+01 +3.1474839639e+01 +1.8130138352e+02 1.8709249095e+02 0.0000000000e+00 0.0000e+00 -1.0000e+00
<mgrwt>
<rscale>  0 0.93605730E+02</rscale>
<asrwt>0</asrwt>
<pdfrwt beam="1">  1        2 0.67588234E-01 0.93605730E+02</pdfrwt>
<pdfrwt beam="2">  1       -2 0.76709131E-03 0.93605730E+02</pdfrwt>
<totfact> 0.19240979E+05</totfact>
</mgrwt>
</event>
<event>
 4      1 +1.6944000e+03 2.87696300e+01 7.81860800e-03 1.61210100e-01
        2 -1    0    0  501    0 +0.0000000000e+00 +0.0000000000e+00 +2.9965726356e+00 2.9965726356e+00 0.0000000000e+00 0.0000e+00 1.0000e+00
       -2 -1    0    0    0  501 -0.0000000000e+00 -0.0000000000e+00 -6.9053188101e+01 6.9053188101e+01 0.0000000000e+00 0.0000e+00 -1.0000e+00
      -13  1    1    2    0    0 -1.2752270022e+01 +3.7264540142e+00 -1.9216528221e+01 2.3361973528e+01 0.0000000000e+00 0.0000e+00 1.0000e+00
       13  1    1    2    0    0 +1.2752270022e+01 -3.7264540142e+00 -4.6840087244e+01 4.8687787209e+01 0.0000000000e+00 0.0000e+00 -1.0000e+00
<mgrwt>
<rscale>  0 0.28769629E+02</rscale>
<asrwt>0</asrwt>
<pdfrwt beam="1">  1        2 0.46101118E-03 0.28769629E+02</pdfrwt>
<pdfrwt beam="2">  1       -2 0.10623567E-01 0.28769629E+02</pdfrwt>
<totfact> 0.14211727E+06</totfact>
</mgrwt>
</event>
<event>
 5      1 +1.6944000e+03 9.41023800e+01 7.81860800e-03 1.29321100e-01
       -1 -1    0    0    0  501 -0.0000000000e+00 +0.0000000000e+00 +1.1533023740e+02 1.1533023740e+02 0.0000000000e+00 0.0000e+00 1.0000e+00
        1 -1    0    0  501    0 +0.0000000000e+00 -0.0000000000e+00 -1.9195440215e+01 1.9195440215e+01 0.0000000000e+00 0.0000e+00 -1.0000e+00
       23  2    1    2    0    0 +0.0000000000e+00 +0.0000000000e+00 +9.6134797182e+01 1.3452567761e+02 9.4102384178e+01 0.0000e+00 0.0000e+00
      -13  1    3    3    0    0 -1.6021242907e+01 +3.2431762472e+01 +9.1080868244e+01 9.8001142858e+01 0.0000000000e+00 0.0000e+00 1.0000e+00
       13  1    3    3    0    0 +1.6021242907e+01 -3.2431762472e+01 +5.0539289379e+00 3.6524534755e+01 0.0000000000e+00 0.0000e+00 -1.0000e+00
<mgrwt>
<rscale>  0 0.94102384E+02</rscale>
<asrwt>0</asrwt>
<pdfrwt beam="2">  1        1 0.29531447E-02 0.94102384E+02</pdfrwt>
<pdfrwt beam="1">  1       -1 0.17743113E-01 0.94102384E+02</pdfrwt>
<totfact> 0.72952934E+04</totfact>
</mgrwt>
</event>
<event>
 5      1 +1.6944000e+03 9.47839400e+01 7.81860800e-03 1.29166300e-01
       -2 -1    0    0    0  501 -0.0000000000e+00 +0.0000000000e+00 +6.9120919400e+01 6.9120919400e+01 0.0000000000e+00 0.0000e+00 1.0000e+00
        2 -1    0    0  501    0 +0.0000000000e+00 -0.0000000000e+00 -3.2493764119e+01 3.2493764119e+01 0.0000000000e+00 0.0000e+00 -1.0000e+00
       23  2    1    2    0    0 +0.0000000000e+00 +0.0000000000e+00 +3.6627155281e+01 1.0161468352e+02 9.4783940637e+01 0.0000e+00 0.0000e+00
      -11  1    3    3    0    0 +6.7652805113e+00 +4.1902204655e+01 -4.2873295402e+00 4.2660813048e+01 0.0000000000e+00 0.0000e+00 1.0000e+00
       11  1    3    3    0    0 -6.7652805113e+00 -4.1902204655e+01 +4.0914484821e+01 5.8953870471e+01 0.0000000000e+00 0.0000e+00 -1.0000e+00
<mgrwt>
<rscale>  0 0.94783941E+02</rscale>
<asrwt>0</asrwt>
<pdfrwt beam="2">  1        2 0.49990406E-02 0.94783941E+02</pdfrwt>
<pdfrwt beam="1">  1       -2 0.10633988E-01 0.94783941E+02</pdfrwt>
<totfact> 0.80546064E+04</totfact>
</mgrwt>
</event>
<event>
 4      1 +1.6944000e+03 3.91098500e+01 7.81860800e-03 1.51486600e-01
       -4 -1    0    0    0  501 -0.0000000000e+00 +0.0000000000e+00 +4.5443930793e+00 4.5443930793e+00 0.0000000000e+00 0.0000e+00 1.0000e+00
        4 -1    0    0  501    0 +0.0000000000e+00 -0.0000000000e+00 -8.4146569178e+01 8.4146569178e+01 0.0000000000e+00 0.0000e+00 -1.0000e+00
      -13  1    1    2    0    0 +1.4556185969e+01 -3.4001047562e+00 -6.8391866343e+01 7.0006361455e+01 0.0000000000e+00 0.0000e+00 -1.0000e+00
       13  1    1    2    0    0 -1.4556185969e+01 +3.4001047562e+00 -1.1210309756e+01 1.8684600803e+01 0.0000000000e+00 0.0000e+00 1.0000e+00
<mgrwt>
<rscale>  0 0.39109850E+02</rscale>
<asrwt>0</asrwt>
<pdfrwt beam="2">  1        4 0.12945627E-01 0.39109850E+02</pdfrwt>
<pdfrwt beam="1">  1       -4 0.69913737E-03 0.39109850E+02</pdfrwt>
<totfact> 0.23339061E+05</totfact>
</mgrwt>
</event>
<event>
 5      1 +1.6944000e+03 9.25066400e+01 7.81860800e-03 1.29689300e-01
       -3 -1    0    0    0  501 -0.0000000000e+00 +0.0000000000e+00 +3.5230288667e+01 3.5230288667e+01 0.0000000000e+00 0.0000e+00 1.0000e+00
        3 -1    0    0  501    0 +0.0000000000e+00 -0.0000000000e+00 -6.0725296001e+01 6.0725296001e+01 0.0000000000e+00 0.0000e+00 -1.0000e+00
       23  2    1    2    0    0 +0.0000000000e+00 +0.0000000000e+00 -2.5495007334e+01 9.5955584669e+01 9.2506642087e+01 0.0000e+00 0.0000e+00
      -13  1    3    3    0    0 +3.8966825334e+01 +1.5888478588e+01 +7.1648885854e+00 4.2687150958e+01 0.0000000000e+00 0.0000e+00 1.0000e+00
       13  1    3    3    0    0 -3.8966825334e+01 -1.5888478588e+01 -3.2659895919e+01 5.3268433710e+01 0.0000000000e+00 0.0000e+00 -1.0000e+00
<mgrwt>
<rscale>  0 0.92506642E+02</rscale>
<asrwt>0</asrwt>
<pdfrwt beam="2">  1        3 0.93423531E-02 0.92506642E+02</pdfrwt>
<pdfrwt beam="1">  1       -3 0.54200445E-02 0.92506642E+02</pdfrwt>
<totfact> 0.33618769E+04</totfact>
</mgrwt>
</event>
<event>
 4      1 +1.6944000e+03 2.32709600e+01 7.81860800e-03 1.68715500e-01
        1 -1    0    0  501    0 +0.0000000000e+00 +0.0000000000e+00 +1.9270059484e+01 1.9270059484e+01 0.0000000000e+00 0.0000e+00 1.0000e+00
       -1 -1    0    0    0  501 -0.0000000000e+00 -0.0000000000e+00 -7.0256329944e+00 7.0256329944e+00 0.0000000000e+00 0.0000e+00 -1.0000e+00
      -11  1    1    2    0    0 -2.1672224535e+00 -1.0405245852e+01 +7.7198403316e-01 1.0656545113e+01 0.0000000000e+00 0.0000e+00 1.0000e+00
       11  1    1    2    0    0 +2.1672224535e+00 +1.0405245852e+01 +1.1472442456e+01 1.5639147365e+01 0.0000000000e+00 0.0000e+00 -1.0000e+00
<mgrwt>
<rscale>  0 0.23270957E+02</rscale>
<asrwt>0</asrwt>
<pdfrwt beam="1">  1        1 0.29646245E-02 0.23270957E+02</pdfrwt>
<pdfrwt beam="2">  1       -1 0.10808666E-02 0.23270957E+02</pdfrwt>
<totfact> 0.28080570E+06</totfact>
</mgrwt>
</event>
<event>
 4      1 +1.6944000e+03 2.42146300e+01 7.81860800e-03 1.67254600e-01
       -2 -1    0    0    0  501 -0.0000000000e+00 +0.0000000000e+00 +8.9985858901e+00 8.9985858901e+00 0.0000000000e+00 0.0000e+00 1.0000e+00
        2 -1    0    0  501    0 +0.0000000000e+00 -0.0000000000e+00 -1.6290014344e+01 1.6290014344e+01 0.0000000000e+00 0.0000e+00 -1.0000e+00
      -11  1    1    2    0    0 -2.3323178467e+00 +1.1459098721e+01 -6.9211265063e+00 1.3588695381e+01 0.0000000000e+00 0.0000e+00 -1.0000e+00
       11  1    1    2    0    0 +2.3323178467e+00 -1.1459098721e+01 -3.7030194732e-01 1.1699904853e+01 0.0000000000e+00 0.0000e+00 1.0000e+00
<mgrwt>
<rscale>  0 0.24214631E+02</rscale>
<asrwt>0</asrwt>
<pdfrwt beam="2">  1        2 0.25061560E-02 0.24214631E+02</pdfrwt>
<pdfrwt beam="1">  1       -2 0.13843979E-02 0.24214631E+02</pdfrwt>
<totfact> 0.26361890E+06</totfact>
</mgrwt>
</event>
<event>
 4      1 +1.6944000e+03 2.64624600e+01 7.81860800e-03 1.64084300e-01
        2 -1    0    0  501    0 +0.0000000000e+00 +0.0000000000e+00 +2.1978045498e+00 2.1978045498e+00 0.0000000000e+00 0.0000e+00 1.0000e+00
       -2 -1    0    0    0  501 -0.0000000000e+00 -0.0000000000e+00 -7.9654704266e+01 7.9654704266e+01 0.0000000000e+00 0.0000e+00 -1.0000e+00
      -13  1    1    2    0    0 +9.7492650058e+00 -8.3903061557e+00 -4.8322252377e+01 5.0004854567e+01 0.0000000000e+00 0.0000e+00 -1.0000e+00
       13  1    1    2    0    0 -9.7492650058e+00 +8.3903061557e+00 -2.9134647339e+01 3.1847654249e+01 0.0000000000e+00 0.0000e+00 1.0000e+00
<mgrwt>
<rscale>  0 0.26462462E+02</rscale>
<asrwt>0</asrwt>
<pdfrwt beam="1">  1        2 0.33812374E-03 0.26462462E+02</pdfrwt>
<pdfrwt beam="2">  1       -2 0.12254571E-01 0.26462462E+02</pdfrwt>
<totfact> 0.16741760E+06</totfact>
</mgrwt>
</event>
<event>
 5      1 +1.6944000e+03 9.31028100e+01 7.81860800e-03 1.29550700e-01
        1 -1    0    0  501    0 +0.0000000000e+00 +0.0000000000e+00 +2.1401204643e+01 2.1401204643e+01 0.0000000000e+00 0.0000e+00 -1.0000e+00
       -1 -1    0    0    0  501 -0.0000000000e+00 -0.0000000000e+00 -1.0125753240e+02 1.0125753240e+02 0.0000000000e+00 0.0000e+00 1.0000e+00
       23  2    1    2    0    0 +0.0000000000e+00 +0.0000000000e+00 -7.9856327762e+01 1.2265873705e+02 9.3102807103e+01 0.0000e+00 0.0000e+00
      -13  1    3    3    0    0 +1.2627860988e+01 +4.2764721107e+01 -2.2314186415e+01 4.9861880829e+01 0.0000000000e+00 0.0000e+00 -1.0000e+00
       13  1    3    3    0    0 -1.2627860988e+01 -4.2764721107e+01 -5.7542141346e+01 7.2796856218e+01 0.0000000000e+00 0.0000e+00 1.0000e+00
<mgrwt>
<rscale>  0 0.93102807E+02</rscale>
<asrwt>0</asrwt>
<pdfrwt beam="1">  1        1 0.32924930E-02 0.93102807E+02</pdfrwt>
<pdfrwt beam="2">  1       -1 0.15578082E-01 0.93102807E+02</pdfrwt>
<totfact> 0.76920066E+04</totfact>
</mgrwt>
</event>
<event>
 5      1 +1.6944000e+03 9.33710700e+01 7.81860800e-03 1.29488800e-01
       -3 -1    0    0    0  501 -0.0000000000e+00 +0.0000000000e+00 +8.2161893482e+01 8.2161893482e+01 0.0000000000e+00 0.0000e+00 1.0000e+00
        3 -1    0    0  501    0 +0.0000000000e+00 -0.0000000000e+00 -2.6527372295e+01 2.6527372295e+01 0.0000000000e+00 0.0000e+00 -1.0000e+00
       23  2    1    2    0    0 +0.0000000000e+00 +0.0000000000e+00 +5.5634521187e+01 1.0868926578e+02 9.3371069113e+01 0.0000e+00 0.0000e+00
      -11  1    3    3    0    0 +3.1580205120e+01 -3.2592449464e+01 +4.0566850250e+01 6.0870735635e+01 0.0000000000e+00 0.0000e+00 1.0000e+00
       11  1    3    3    0    0 -3.1580205120e+01 +3.2592449464e+01 +1.5067670937e+01 4.7818530142e+01 0.0000000000e+00 0.0000e+00 -1.0000e+00
<mgrwt>
<rscale>  0 0.93371069E+02</rscale>
<asrwt>0</asrwt>
<pdfrwt beam="2">  1        3 0.40811342E-02 0.93371069E+02</pdfrwt>
<pdfrwt beam="1">  1       -3 0.12640291E-01 0.93371069E+02</pdfrwt>
<totfact> 0.31902646E+04</totfact>
</mgrwt>
</event>
<event>
 4      1 +1.6944000e+03 3.88216300e+01 7.81860800e-03 1.51706600e-01
        2 -1    0    0  501    0 +0.0000000000e+00 +0.0000000000e+00 +3.2370415228e+01 3.2370415228e+01 0.0000000000e+00 0.0000e+00 -1.0000e+00
       -2 -1    0    0    0  501 -0.0000000000e+00 -0.0000000000e+00 -1.1639631280e+01 1.1639631280e+01 0.0000000000e+00 0.0000e+00 1.0000e+00
      -13  1    1    2    0    0 +1.9196722174e+01 -2.8570536763e+00 +1.0001917434e+01 2.1833809798e+01 0.0000000000e+00 0.0000e+00 -1.0000e+00
       13  1    1    2    0    0 -1.9196722174e+01 +2.8570536763e+00 +1.0728866514e+01 2.2176236710e+01 0.0000000000e+00 0.0000e+00 1.0000e+00
<mgrwt>
<rscale>  0 0.38821628E+02</rscale>
<asrwt>0</asrwt>
<pdfrwt beam="1">  1        2 0.49800638E-02 0.38821628E+02</pdfrwt>
<pdfrwt beam="2">  1       -2 0.17907125E-02 0.38821628E+02</pdfrwt>
<totfact> 0.90732454E+05</totfact>
</mgrwt>
</event>
<event>
 5      1 +1.6944000e+03 9.17622700e+01 7.81860800e-03 1.29863900e-01
        1 -1    0    0  501    0 +0.0000000000e+00 +0.0000000000e+00 +2.5810833345e+01 2.5810833345e+01 0.0000000000e+00 0.0000e+00 -1.0000e+00
       -1 -1    0    0    0  501 -0.0000000000e+00 -0.0000000000e+00 -8.1557954625e+01 8.1557954625e+01 0.0000000000e+00 0.0000e+00 1.0000e+00
       23  2    1    2    0    0 +0.0000000000e+00 +0.0000000000e+00 -5.5747121280e+01 1.0736878797e+02 9.1762274924e+01 0.0000e+00 0.0000e+00
      -13  1    3    3    0    0 -1.0836870116e+01 +3.9134296463e+01 -5.2863586194e+01 6.6659505390e+01 0.0000000000e+00 0.0000e+00 1.0000e+00
       13  1    3    3    0    0 +1.0836870116e+01 -3.9134296463e+01 -2.8835350863e+00 4.0709282580e+01 0.0000000000e+00 0.0000e+00 -1.0000e+00
<mgrwt>
<rscale>  0 0.91762275E+02</rscale>
<asrwt>0</asrwt>
<pdfrwt beam="1">  1        1 0.39708975E-02 0.91762275E+02</pdfrwt>
<pdfrwt beam="2">  1       -1 0.12547378E-01 0.91762275E+02</pdfrwt>
<totfact> 0.83000622E+04</totfact>
</mgrwt>
</event>
<event>
 4      1 +1.6944000e+03 4.67412100e+01 7.81860800e-03 1.46375500e-01
       -2 -1    0    0    0  501 -0.0000000000e+00 +0.0000000000e+00 +1.6245833184e+01 1.6245833184e+01 0.0000000000e+00 0.0000e+00 -1.0000e+00
        2 -1    0    0  501    0 +0.0000000000e+00 -0.0000000000e+00 -3.3620011324e+01 3.3620011324e+01 0.0000000000e+00 0.0000e+00 1.0000e+00
      -13  1    1    2    0    0 +7.2887855893e+00 +1.0412248938e+01 -2.9610506188e+01 3.2223025929e+01 0.0000000000e+00 0.0000e+00 1.0000e+00
       13  1    1    2    0    0 -7.2887855893e+00 -1.0412248938e+01 +1.2236328047e+01 1.7642818579e+01 0.0000000000e+00 0.0000e+00 -1.0000e+00
<mgrwt>
<rscale>  0 0.46741206E+02</rscale>
<asrwt>0</asrwt>
<pdfrwt beam="2">  1        2 0.51723094E-02 0.46741206E+02</pdfrwt>
<pdfrwt beam="1">  1       -2 0.24993590E-02 0.46741206E+02</pdfrwt>
<totfact> 0.56950530E+05</totfact>
</mgrwt>
</event>
<event>
 5      1 +1.6944000e+03 9.12737000e+01 7.81860800e-03 1.29979600e-01
        2 -1    0    0  501    0 +0.0000000000e+00 +0.0000000000e+00 +3.6214989518e+01 3.6214989518e+01 0.0000000000e+00 0.0000e+00 -1.0000e+00
       -2 -1    0    0    0  501 -0.0000000000e+00 -0.0000000000e+00 -5.7509940710e+01 5.7509940710e+01 0.0000000000e+00 0.0000e+00 1.0000e+00
       23  2    1    2    0    0 +0.0000000000e+00 +0.0000000000e+00 -2.1294951193e+01 9.3724930228e+01 9.1273696101e+01 0.0000e+00 0.0000e+00
      -11  1    3    3    0    0 -2.5624173471e-01 +4.2563344138e+01 +6.2572660156e+00 4.3021591115e+01 0.0000000000e+00 0.0000e+00 1.0000e+00
       11  1    3    3    0    0 +2.5624173471e-01 -4.2563344138e+01 -2.7552217208e+01 5.0703339113e+01 0.0000000000e+00 0.0000e+00 -1.0000e+00
<mgrwt>
<rscale>  0 0.91273696E+02</rscale>
<asrwt>0</asrwt>
<pdfrwt beam="1">  1        2 0.55715369E-02 0.91273696E+02</pdfrwt>
<pdfrwt beam="2">  1       -2 0.88476831E-02 0.91273696E+02</pdfrwt>
<totfact> 0.92673113E+04</totfact>
</mgrwt>
</event>
<event>
 5      1 +1.6944000e+03 9.26675600e+01 7.81860800e-03 1.29651700e-01
       -4 -1    0    0    0  501 -0.0000000000e+00 +0.0000000000e+00 +8.7436016637e+00 8.7436016637e+00 0.0000000000e+00 0.0000e+00 1.0000e+00
        4 -1    0    0  501    0 +0.0000000000e+00 -0.0000000000e+00 -2.4553032044e+02 2.4553032044e+02 0.0000000000e+00 0.0000e+00 -1.0000e+00
       23  2    1    2    0    0 +0.0000000000e+00 +0.0000000000e+00 -2.3678671878e+02 2.5427392211e+02 9.2667563221e+01 0.0000e+00 0.0000e+00
      -13  1    3    3    0    0 +4.6049957554e+01 +1.0032897573e+00 -1.0461504356e+02 1.1430622258e+02 0.0000000000e+00 0.0000e+00 -1.0000e+00
       13  1    3    3    0    0 -4.6049957554e+01 -1.0032897573e+00 -1.3217167522e+02 1.3996769953e+02 0.0000000000e+00 0.0000e+00 1.0000e+00
<mgrwt>
<rscale>  0 0.92667563E+02</rscale>
<asrwt>0</asrwt>
<pdfrwt beam="2">  1        4 0.37773890E-01 0.92667563E+02</pdfrwt>
<pdfrwt beam="1">  1       -4 0.13451697E-02 0.92667563E+02</pdfrwt>
<totfact> 0.18493959E+04</totfact>
</mgrwt>
</event>
<event>
 4      1 +1.6944000e+03 3.93463300e+01 7.81860800e-03 1.51307800e-01
       -2 -1    0    0    0  501 -0.0000000000e+00 +0.0000000000e+00 +1.0862164231e+01 1.0862164231e+01 0.0000000000e+00 0.0000e+00 -1.0000e+00
        2 -1    0    0  501    0 +0.0000000000e+00 -0.0000000000e+00 -3.5631339184e+01 3.5631339184e+01 0.0000000000e+00 0.0000e+00 1.0000e+00
      -13  1    1    2    0    0 -1.2960129806e+01 +1.0517041805e+01 -2.4690773417e+01 2.9802809009e+01 0.0000000000e+00 0.0000e+00 1.0000e+00
       13  1    1    2    0    0 +1.2960129806e+01 -1.0517041805e+01 -7.8401536474e-02 1.6690694405e+01 0.0000000000e+00 0.0000e+00 -1.0000e+00
<mgrwt>
<rscale>  0 0.39346332E+02</rscale>
<asrwt>0</asrwt>
<pdfrwt beam="2">  1        2 0.54817445E-02 0.39346332E+02</pdfrwt>
<pdfrwt beam="1">  1       -2 0.16711022E-02 0.39346332E+02</pdfrwt>
<totfact> 0.88978909E+05</totfact>
</mgrwt>
</event>
<event>
 5      1 +1.6944000e+03 9.07222200e+01 7.81860800e-03 1.30111200e-01
        3 -1    0    0  501    0 +0.0000000000e+00 +0.0000000000e+00 +3.5234693924e+01 3.5234693924e+01 0.0000000000e+00 0.0000e+00 -1.0000e+00
       -3 -1    0    0    0  501 -0.0000000000e+00 -0.0000000000e+00 -5.8397848180e+01 5.8397848180e+01 0.0000000000e+00 0.0000e+00 1.0000e+00
       23  2    1    2    0    0 +0.0000000000e+00 +0.0000000000e+00 -2.3163154256e+01 9.3632542104e+01 9.0722220133e+01 0.0000e+00 0.0000e+00
      -13  1    3    3    0    0 -1.3156111930e+01 +3.1442073833e+01 +1.9310943100e+01 3.9173968544e+01 0.0000000000e+00 0.0000e+00 -1.0000e+00
       13  1    3    3    0    0 +1.3156111930e+01 -3.1442073833e+01 -4.2474097356e+01 5.4458573561e+01 0.0000000000e+00 0.0000e+00 1.0000e+00
<mgrwt>
<rscale>  0 0.90722220E+02</rscale>
<asrwt>0</asrwt>
<pdfrwt beam="1">  1        3 0.54207222E-02 0.90722220E+02</pdfrwt>
<pdfrwt beam="2">  1       -3 0.89842843E-02 0.90722220E+02</pdfrwt>
<totfact> 0.35632920E+04</totfact>
</mgrwt>
</event>
<event>
 5      1 +1.6944000e+03 9.79521600e+01 7.81860800e-03 1.28466200e-01
        2 -1    0    0  501    0 +0.0000000000e+00 +0.0000000000e+00 +9.4942603307e+01 9.4942603307e+01 0.0000000000e+00 0.0000e+00 -1.0000e+00
       -2 -1    0    0    0  501 -0.0000000000e+00 -0.0000000000e+00 -2.5264276553e+01 2.5264276553e+01 0.0000000000e+00 0.0000e+00 1.0000e+00
       23  2    1    2    0    0 +0.0000000000e+00 +0.0000000000e+00 +6.9678326754e+01 1.2020687986e+02 9.7952155395e+01 0.0000e+00 0.0000e+00
      -11  1    3    3    0    0 -3.3416332721e+01 -3.4409531356e+01 +2.2691182705e+01 5.3061821617e+01 0.0000000000e+00 0.0000e+00 1.0000e+00
       11  1    3    3    0    0 +3.3416332721e+01 +3.4409531356e+01 +4.6987144049e+01 6.7145058244e+01 0.0000000000e+00 0.0000e+00 -1.0000e+00
<mgrwt>
<rscale>  0 0.97952155E+02</rscale>
<asrwt>0</asrwt>
<pdfrwt beam="1">  1        2 0.14606554E-01 0.97952155E+02</pdfrwt>
<pdfrwt beam="2">  1       -2 0.38868118E-02 0.97952155E+02</pdfrwt>
<totfact> 0.98977697E+04</totfact>
</mgrwt>
</event>
<event>
 5      1 +1.6944000e+03 9.07318700e+01 7.81860800e-03 1.30108900e-01
       -4 -1    0    0    0  501 -0.0000000000e+00 +0.0000000000e+00 +1.4134572465e+02 1.4134572465e+02 0.0000000000e+00 0.0000e+00 1.0000e+00
        4 -1    0    0  501    0 +0.0000000000e+00 -0.0000000000e+00 -1.4560525136e+01 1.4560525136e+01 0.0000000000e+00 0.0000e+00 -1.0000e+00
       23  2    1    2    0    0 +0.0000000000e+00 +0.0000000000e+00 +1.2678519951e+02 1.5590624979e+02 9.0731868198e+01 0.0000e+00 0.0000e+00
      -11  1    3    3    0    0 +9.3335986533e+00 +4.3562998706e+01 +4.8689469501e+01 6.5996328385e+01 0.0000000000e+00 0.0000e+00 -1.0000e+00
       11  1    3    3    0    0 -9.3335986533e+00 -4.3562998706e+01 +7.8095730012e+01 8.9909921401e+01 0.0000000000e+00 0.0000e+00 1.0000e+00
<mgrwt>
<rscale>  0 0.90731868E+02</rscale>
<asrwt>0</asrwt>
<pdfrwt beam="2">  1        4 0.22400809E-02 0.90731868E+02</pdfrwt>
<pdfrwt beam="1">  1       -4 0.21745495E-01 0.90731868E+02</pdfrwt>
<totfact> 0.23689403E+04</totfact>
</mgrwt>
</event>
<event>
 5      1 +1.6944000e+03 8.78375800e+01 7.81860800e-03 1.30817400e-01
        1 -1    0    0  501    0 +0.0000000000e+00 +0.0000000000e+00 +9.3829021896e+01 9.3829021896e+01 0.0000000000e+00 0.0000e+00 -1.0000e+00
       -1 -1    0    0    0  501 -0.0000000000e+00 -0.0000000000e+00 -2.0557181847e+01 2.0557181847e+01 0.0000000000e+00 0.0000e+00 1.0000e+00
       23  2    1    2    0    0 +0.0000000000e+00 +0.0000000000e+00 +7.3271840049e+01 1.1438620374e+02 8.7837583427e+01 0.0000e+00 0.0000e+00
      -13  1    3    3    0    0 -1.2448379200e+01 +1.2818496641e+01 -1.5609728769e+01 2.3726348920e+01 0.0000000000e+00 0.0000e+00 1.0000e+00
       13  1    3    3    0    0 +1.2448379200e+01 -1.2818496641e+01 +8.8881568818e+01 9.0659854822e+01 0.0000000000e+00 0.0000e+00 -1.0000e+00
<mgrwt>
<rscale>  0 0.87837583E+02</rscale>
<asrwt>0</asrwt>
<pdfrwt beam="1">  1        1 0.14435234E-01 0.87837583E+02</pdfrwt>
<pdfrwt beam="2">  1       -1 0.31626434E-02 0.87837583E+02</pdfrwt>
<totfact> 0.11440983E+05</totfact>
</mgrwt>
</event>
<event>
 5      1 +1.6944000e+03 9.20712700e+01 7.81860800e-03 1.29791200e-01
       -1 -1    0    0    0  501 -0.0000000000e+00 +0.0000000000e+00 +9.6610282663e+01 9.6610282663e+01 0.0000000000e+00 0.0000e+00 1.0000e+00
        1 -1    0    0  501    0 +0.0000000000e+00 -0.0000000000e+00 -2.1936380158e+01 2.1936380158e+01 0.0000000000e+00 0.0000e+00 -1.0000e+00
       23  2    1    2    0    0 +0.0000000000e+00 +0.0000000000e+00 +7.4673902505e+01 1.1854666282e+02 9.2071274297e+01 0.0000e+00 0.0000e+00
      -13  1    3    3    0    0 +4.2197515067e+01 +1.8300225236e+01 +3.9830741426e+01 6.0844198442e+01 0.0000000000e+00 0.0000e+00 -1.0000e+00
       13  1    3    3    0    0 -4.2197515067e+01 -1.8300225236e+01 +3.4843161079e+01 5.7702464380e+01 0.0000000000e+00 0.0000e+00 1.0000e+00
<mgrwt>
<rscale>  0 0.92071274E+02</rscale>
<asrwt>0</asrwt>
<pdfrwt beam="2">  1        1 0.33748278E-02 0.92071274E+02</pdfrwt>
<pdfrwt beam="1">  1       -1 0.14863120E-01 0.92071274E+02</pdfrwt>
<totfact> 0.79856256E+04</totfact>
</mgrwt>
</event>
<event>
 5      1 +1.6944000e+03 9.10342800e+01 7.81860800e-03 1.30036600e-01
       -1 -1    0    0    0  501 -0.0000000000e+00 +0.0000000000e+00 +3.6819403002e+01 3.6819403002e+01 0.0000000000e+00 0.0000e+00 1.0000e+00
        1 -1    0    0  501    0 +0.0000000000e+00 -0.0000000000e+00 -5.6269521109e+01 5.6269521109e+01 0.0000000000e+00 0.0000e+00 -1.0000e+00
       23  2    1    2    0    0 +0.0000000000e+00 +0.0000000000e+00 -1.9450118107e+01 9.3088924111e+01 9.1034283090e+01 0.0000e+00 0.0000e+00
      -13  1    3    3    0    0 +3.0024028242e+01 +1.5011548741e+01 -4.1160085837e+01 5.3112536501e+01 0.0000000000e+00 0.0000e+00 -1.0000e+00
       13  1    3    3    0    0 -3.0024028242e+01 -1.5011548741e+01 +2.1709967731e+01 3.9976387610e+01 0.0000000000e+00 0.0000e+00 1.0000e+00
<mgrwt>
<rscale>  0 0.91034283E+02</rscale>
<asrwt>0</asrwt>
<pdfrwt beam="2">  1        1 0.86568494E-02 0.91034283E+02</pdfrwt>
<pdfrwt beam="1">  1       -1 0.56645235E-02 0.91034283E+02</pdfrwt>
<totfact> 0.95858797E+04</totfact>
</mgrwt>
</event>
<event>
 5      1 +1.6944000e+03 9.06041000e+01 7.81860800e-03 1.30139500e-01
       -1 -1    0    0    0  501 -0.0000000000e+00 +0.0000000000e+00 +2.7450948308e+01 2.7450948308e+01 0.0000000000e+00 0.0000e+00 1.0000e+00
        1 -1    0    0  501    0 +0.0000000000e+00 -0.0000000000e+00 -7.4761566400e+01 7.4761566400e+01 0.0000000000e+00 0.0000e+00 -1.0000e+00
       23  2    1    2    0    0 +0.0000000000e+00 +0.0000000000e+00 -4.7310618092e+01 1.0221251471e+02 9.0604103543e+01 0.0000e+00 0.0000e+00
      -11  1    3    3    0    0 -3.3630524849e+01 +2.4902018548e+01 -4.3232479479e+01 6.0167848651e+01 0.0000000000e+00 0.0000e+00 -1.0000e+00
       11  1    3    3    0    0 +3.3630524849e+01 -2.4902018548e+01 -4.0781386125e+00 4.2044666057e+01 0.0000000000e+00 0.0000e+00 1.0000e+00
<mgrwt>
<rscale>  0 0.90604104E+02</rscale>
<asrwt>0</asrwt>
<pdfrwt beam="2">  1        1 0.11501779E-01 0.90604104E+02</pdfrwt>
<pdfrwt beam="1">  1       -1 0.42232229E-02 0.90604104E+02</pdfrwt>
<totfact> 0.10142139E+05</totfact>
</mgrwt>
</event>
<event>
 5      1 +1.6944000e+03 9.02392400e+01 7.81860800e-03 1.30227300e-01
       -1 -1    0    0    0  501 -0.0000000000e+00 +0.0000000000e+00 +3.5910861953e+02 3.5910861953e+02 0.0000000000e+00 0.0000e+00 1.0000e+00
        1 -1    0    0  501    0 +0.0000000000e+00 -0.0000000000e+00 -5.6689811871e+00 5.6689811871e+00 0.0000000000e+00 0.0000e+00 -1.0000e+00
       23  2    1    2    0    0 +0.0000000000e+00 +0.0000000000e+00 +3.5343963834e+02 3.6477760071e+02 9.0239237767e+01 0.0000e+00 0.0000e+00
      -11  1    3    3    0    0 +1.0284187715e+01 -4.2038218289e+01 +1.2514177472e+02 1.3241389691e+02 0.0000000000e+00 0.0000e+00 1.0000e+00
       11  1    3    3    0    0 -1.0284187715e+01 +4.2038218289e+01 +2.2829786361e+02 2.3236370380e+02 0.0000000000e+00 0.0000e+00 -1.0000e+00
<mgrwt>
<rscale>  0 0.90239238E+02</rscale>
<asrwt>0</asrwt>
<pdfrwt beam="2">  1        1 0.87215124E-03 0.90239238E+02</pdfrwt>
<pdfrwt beam="1">  1       -1 0.55247462E-01 0.90239238E+02</pdfrwt>
<totfact> 0.57668483E+04</totfact>
</mgrwt>
</event>
<event>
 5      1 +1.6944000e+03 9.96858000e+01 7.81860800e-03 1.28095800e-01
        1 -1    0    0  501    0 +0.0000000000e+00 +0.0000000000e+00 +5.7841269732e+01 5.7841269732e+01 0.0000000000e+00 0.0000e+00 -1.0000e+00
       -1 -1    0    0    0  501 -0.0000000000e+00 -0.0000000000e+00 -4.2950554692e+01 4.2950554692e+01 0.0000000000e+00 0.0000e+00 1.0000e+00
       23  2    1    2    0    0 +0.0000000000e+00 +0.0000000000e+00 +1.4890715040e+01 1.0079182442e+02 9.9685798769e+01 0.0000e+00 0.0000e+00
      -11  1    3    3    0    0 +8.1835962120e-01 -4.9517107349e+01 +1.7525250830e+00 4.9554868347e+01 0.0000000000e+00 0.0000e+00 1.0000e+00
       11  1    3    3    0    0 -8.1835962120e-01 +4.9517107349e+01 +1.3138189957e+01 5.1236956077e+01 0.0000000000e+00 0.0000e+00 -1.0000e+00
<mgrwt>
<rscale>  0 0.99685799E+02</rscale>
<asrwt>0</asrwt>
<pdfrwt beam="1">  1        1 0.88986569E-02 0.99685799E+02</pdfrwt>
<pdfrwt beam="2">  1       -1 0.66077776E-02 0.99685799E+02</pdfrwt>
<totfact> 0.74659088E+04</totfact>
</mgrwt>
</event>
<event>
 5      1 +1.6944000e+03 9.25512600e+01 7.81860800e-03 1.29678800e-01
       -1 -1    0    0    0  501 -0.0000000000e+00 +0.0000000000e+00 +8.1741812024e+01 8.1741812024e+01 0.0000000000e+00 0.0000e+00 1.0000e+00
        1 -1    0    0  501    0 +0.0000000000e+00 -0.0000000000e+00 -2.6197533506e+01 2.6197533506e+01 0.0000000000e+00 0.0000e+00 -1.0000e+00
       23  2    1    2    0    0 +0.0000000000e+00 +0.0000000000e+00 +5.5544278519e+01 1.0793934553e+02 9.2551258432e+01 0.0000e+00 0.0000e+00
      -13  1    3    3    0    0 +3.2039673019e+01 -3.0784073082e+01 +4.2854169754e+01 6.1730702798e+01 0.0000000000e+00 0.0000e+00 -1.0000e+00
       13  1    3    3    0    0 -3.2039673019e+01 +3.0784073082e+01 +1.2690108765e+01 4.6208642732e+01 0.0000000000e+00 0.0000e+00 1.0000e+00
<mgrwt>
<rscale>  0 0.92551258E+02</rscale>
<asrwt>0</asrwt>
<pdfrwt beam="2">  1        1 0.40303898E-02 0.92551258E+02</pdfrwt>
<pdfrwt beam="1">  1       -1 0.12575663E-01 0.92551258E+02</pdfrwt>
<totfact> 0.81166863E+04</totfact>
</mgrwt>
</event>
<event>
 5      1 +1.6944000e+03 9.56127000e+01 7.81860800e-03 1.28980200e-01
       -3 -1    0    0    0  501 -0.0000000000e+00 +0.0000000000e+00 +1.3641504574e+01 1.3641504574e+01 0.0000000000e+00 0.0000e+00 1.0000e+00
        3 -1    0    0  501    0 +0.0000000000e+00 -0.0000000000e+00 -1.6753627945e+02 1.6753627945e+02 0.0000000000e+00 0.0000e+00 -1.0000e+00
       23  2    1    2    0    0 +0.0000000000e+00 +0.0000000000e+00 -1.5389477488e+02 1.8117778403e+02 9.5612696280e+01 0.0000e+00 0.0000e+00
      -11  1    3    3    0    0 +2.3917164190e-01 +3.1522649225e+01 -8.8434413714e+00 3.2740511183e+01 0.0000000000e+00 0.0000e+00 1.0000e+00
       11  1    3    3    0    0 -2.3917164190e-01 -3.1522649225e+01 -1.4505133351e+02 1.4843727284e+02 0.0000000000e+00 0.0000e+00 -1.0000e+00
<mgrwt>
<rscale>  0 0.95612696E+02</rscale>
<asrwt>0</asrwt>
<pdfrwt beam="2">  1        3 0.25774812E-01 0.95612696E+02</pdfrwt>
<pdfrwt beam="1">  1       -3 0.20986930E-02 0.95612696E+02</pdfrwt>
<totfact> 0.25934559E+04</totfact>
</mgrwt>
</event>
<event>
 5      1 +1.6944000e+03 8.32349200e+01 7.81860800e-03 1.32011400e-01
       -2 -1    0    0    0  501 -0.0000000000e+00 +0.0000000000e+00 +1.7175295757e+02 1.7175295757e+02 0.0000000000e+00 0.0000e+00 1.0000e+00
        2 -1    0    0  501    0 +0.0000000000e+00 -0.0000000000e+00 -1.0084327715e+01 1.0084327715e+01 0.0000000000e+00 0.0000e+00 -1.0000e+00
       23  2    1    2    0    0 +0.0000000000e+00 +0.0000000000e+00 +1.6166862985e+02 1.8183728528e+02 8.3234923203e+01 0.0000e+00 0.0000e+00
      -13  1    3    3    0    0 -2.9104477498e+01 -1.3594327354e+01 +2.3028863494e+01 3.9524737830e+01 0.0000000000e+00 0.0000e+00 -1.0000e+00
       13  1    3    3    0    0 +2.9104477498e+01 +1.3594327354e+01 +1.3863976636e+02 1.4231254745e+02 0.0000000000e+00 0.0000e+00 1.0000e+00
<mgrwt>
<rscale>  0 0.83234923E+02</rscale>
<asrwt>0</asrwt>
<pdfrwt beam="2">  1        2 0.15514352E-02 0.83234923E+02</pdfrwt>
<pdfrwt beam="1">  1       -2 0.26423530E-01 0.83234923E+02</pdfrwt>
<totfact> 0.83638802E+04</totfact>
</mgrwt>
</event>
<event>
 5      1 +1.6944000e+03 9.23071900e+01 7.81860800e-03 1.29735900e-01
        1 -1    0    0  501    0 +0.0000000000e+00 +0.0000000000e+00 +4.5086364475e+01 4.5086364475e+01 0.0000000000e+00 0.0000e+00 -1.0000e+00
       -1 -1    0    0    0  501 -0.0000000000e+00 -0.0000000000e+00 -4.7246092137e+01 4.7246092137e+01 0.0000000000e+00 0.0000e+00 1.0000e+00
       23  2    1    2    0    0 +0.0000000000e+00 +0.0000000000e+00 -2.1597276624e+00 9.2332456611e+01 9.2307194304e+01 0.0000e+00 0.0000e+00
      -11  1    3    3    0    0 +1.8266145033e+01 +1.8443921855e+01 -3.9252124109e+01 4.7059107034e+01 0.0000000000e+00 0.0000e+00 1.0000e+00
       11  1    3    3    0    0 -1.8266145033e+01 -1.8443921855e+01 +3.7092396447e+01 4.5273349577e+01 0.0000000000e+00 0.0000e+00 -1.0000e+00
<mgrwt>
<rscale>  0 0.92307194E+02</rscale>
<asrwt>0</asrwt>
<pdfrwt beam="1">  1        1 0.69363638E-02 0.92307194E+02</pdfrwt>
<pdfrwt beam="2">  1       -1 0.72686295E-02 0.92307194E+02</pdfrwt>
<totfact> 0.89172445E+04</totfact>
</mgrwt>
</event>
<event>
 5      1 +1.6944000e+03 9.94503800e+01 7.81860800e-03 1.28145600e-01
        4 -1    0    0  501    0 +0.0000000000e+00 +0.0000000000e+00 +1.1176079900e+01 1.1176079900e+01 0.0000000000e+00 0.0000e+00 -1.0000e+00
       -4 -1    0    0    0  501 -0.0000000000e+00 -0.0000000000e+00 -2.2123989114e+02 2.2123989114e+02 0.0000000000e+00 0.0000e+00 1.0000e+00
       23  2    1    2    0    0 +0.0000000000e+00 +0.0000000000e+00 -2.1006381124e+02 2.3241597104e+02 9.9450383616e+01 0.0000e+00 0.0000e+00
      -11  1    3    3    0    0 +4.2512918202e+01 +6.6557976150e+00 -1.6326725936e+02 1.6884266592e+02 0.0000000000e+00 0.0000e+00 1.0000e+00
       11  1    3    3    0    0 -4.2512918202e+01 -6.6557976150e+00 -4.6796551881e+01 6.3573305121e+01 0.0000000000e+00 0.0000e+00 -1.0000e+00
<mgrwt>
<rscale>  0 0.99450384E+02</rscale>
<asrwt>0</asrwt>
<pdfrwt beam="1">  1        4 0.17193969E-02 0.99450384E+02</pdfrwt>
<pdfrwt beam="2">  1       -4 0.34036907E-01 0.99450384E+02</pdfrwt>
<totfact> 0.15916514E+04</totfact>
</mgrwt>
</event>
<event>
 5      1 +1.6944000e+03 9.42576600e+01 7.81860800e-03 1.29285700e-01
       -2 -1    0    0    0  501 -0.0000000000e+00 +0.0000000000e+00 +4.9645864950e+01 4.9645864950e+01 0.0000000000e+00 0.0000e+00 1.0000e+00
        2 -1    0    0  501    0 +0.0000000000e+00 -0.0000000000e+00 -4.4739403629e+01 4.4739403629e+01 0.0000000000e+00 0.0000e+00 -1.0000e+00
       23  2    1    2    0    0 +0.0000000000e+00 +0.0000000000e+00 +4.9064613208e+00 9.4385268580e+01 9.4257655191e+01 0.0000e+00 0.0000e+00
      -11  1    3    3    0    0 -1.5107136217e+01 +1.0359427253e+00 -4.2237089139e+01 4.4869482289e+01 0.0000000000e+00 0.0000e+00 -1.0000e+00
       11  1    3    3    0    0 +1.5107136217e+01 -1.0359427253e+00 +4.7143550460e+01 4.9515786290e+01 0.0000000000e+00 0.0000e+00 1.0000e+00
<mgrwt>
<rscale>  0 0.94257655E+02</rscale>
<asrwt>0</asrwt>
<pdfrwt beam="2">  1        2 0.68829852E-02 0.94257655E+02</pdfrwt>
<pdfrwt beam="1">  1       -2 0.76378254E-02 0.94257655E+02</pdfrwt>
<totfact> 0.89214912E+04</totfact>
</mgrwt>
</event>
<event>
 5      1 +1.6944000e+03 9.19626500e+01 7.81860800e-03 1.29816700e-01
       -1 -1    0    0    0  501 -0.0000000000e+00 +0.0000000000e+00 +4.4037222625e+01 4.4037222625e+01 0.0000000000e+00 0.0000e+00 1.0000e+00
        1 -1    0    0  501    0 +0.0000000000e+00 -0.0000000000e+00 -4.8011253044e+01 4.8011253044e+01 0.0000000000e+00 0.0000e+00 -1.0000e+00
       23  2    1    2    0    0 +0.0000000000e+00 +0.0000000000e+00 -3.9740304191e+00 9.2048475669e+01 9.1962649783e+01 0.0000e+00 0.0000e+00
      -11  1    3    3    0    0 +1.3443162163e+01 +4.3772287076e+01 -6.1802583438e+00 4.6205273703e+01 0.0000000000e+00 0.0000e+00 -1.0000e+00
       11  1    3    3    0    0 -1.3443162163e+01 -4.3772287076e+01 +2.2062279247e+00 4.5843201965e+01 0.0000000000e+00 0.0000e+00 1.0000e+00
<mgrwt>
<rscale>  0 0.91962650E+02</rscale>
<asrwt>0</asrwt>
<pdfrwt beam="2">  1        1 0.73863466E-02 0.91962650E+02</pdfrwt>
<pdfrwt beam="1">  1       -1 0.67749573E-02 0.91962650E+02</pdfrwt>
<totfact> 0.90977891E+04</totfact>
</mgrwt>
</event>
<event>
 5      1 +1.6944000e+03 9.14588700e+01 7.81860800e-03 1.29935700e-01
        2 -1    0    0  501    0 +0.0000000000e+00 +0.0000000000e+00 +9.0174384977e+01 9.0174384977e+01 0.0000000000e+00 0.0000e+00 -1.0000e+00
       -2 -1    0    0    0  501 -0.0000000000e+00 -0.0000000000e+00 -2.3190414023e+01 2.3190414023e+01 0.0000000000e+00 0.0000e+00 1.0000e+00
       23  2    1    2    0    0 +0.0000000000e+00 +0.0000000000e+00 +6.6983970954e+01 1.1336479900e+02 9.1458872109e+01 0.0000e+00 0.0000e+00
      -11  1    3    3    0    0 +5.1884505571e+00 +3.8950948631e+01 +6.2484090316e+01 7.3812993172e+01 0.0000000000e+00 0.0000e+00 -1.0000e+00
       11  1    3    3    0    0 -5.1884505571e+00 -3.8950948631e+01 +4.4998806379e+00 3.9551805827e+01 0.0000000000e+00 0.0000e+00 1.0000e+00
<mgrwt>
<rscale>  0 0.91458872E+02</rscale>
<asrwt>0</asrwt>
<pdfrwt beam="1">  1        2 0.13872982E-01 0.91458872E+02</pdfrwt>
<pdfrwt beam="2">  1       -2 0.35677561E-02 0.91458872E+02</pdfrwt>
<totfact> 0.11791410E+05</totfact>
</mgrwt>
</event>
<event>
 5      1 +1.6944000e+03 9.31689800e+01 7.81860800e-03 1.29535400e-01
       -2 -1    0    0    0  501 -0.0000000000e+00 +0.0000000000e+00 +5.8407083299e+01 5.8407083299e+01 0.0000000000e+00 0.0000e+00 -1.0000e+00
        2 -1    0    0  501    0 +0.0000000000e+00 -0.0000000000e+00 -3.7154992791e+01 3.7154992791e+01 0.0000000000e+00 0.0000e+00 1.0000e+00
       23  2    1    2    0    0 +0.0000000000e+00 +0.0000000000e+00 +2.1252090508e+01 9.5562076090e+01 9.3168981081e+01 0.0000e+00 0.0000e+00
      -11  1    3    3    0    0 +1.3046467186e+01 +2.9254232461e+01 -2.4067217720e+01 4.0065588623e+01 0.0000000000e+00 0.0000e+00 1.0000e+00
       11  1    3    3    0    0 -1.3046467186e+01 -2.9254232461e+01 +4.5319308228e+01 5.5496487467e+01 0.0000000000e+00 0.0000e+00 -1.0000e+00
<mgrwt>
<rscale>  0 0.93168981E+02</rscale>
<asrwt>0</asrwt>
<pdfrwt beam="2">  1        2 0.57161527E-02 0.93168981E+02</pdfrwt>
<pdfrwt beam="1">  1       -2 0.89857051E-02 0.93168981E+02</pdfrwt>
<totfact> 0.87852338E+04</totfact>
</mgrwt>
</event>
<event>
 5      1 +1.6944000e+03 9.06359500e+01 7.81860800e-03 1.30131900e-01
       -1 -1    0    0    0  501 -0.0000000000e+00 +0.0000000000e+00 +1.8097662709e+02 1.8097662709e+02 0.0000000000e+00 0.0000e+00 1.0000e+00
        1 -1    0    0  501    0 +0.0000000000e+00 -0.0000000000e+00 -1.1347978049e+01 1.1347978049e+01 0.0000000000e+00 0.0000e+00 -1.0000e+00
       23  2    1    2    0    0 +0.0000000000e+00 +0.0000000000e+00 +1.6962864904e+02 1.9232460514e+02 9.0635948535e+01 0.0000e+00 0.0000e+00
      -13  1    3    3    0    0 -4.2860486752e+01 +1.4670400093e+01 +8.7393015838e+01 9.8436686153e+01 0.0000000000e+00 0.0000e+00 1.0000e+00
       13  1    3    3    0    0 +4.2860486752e+01 -1.4670400093e+01 +8.2235633204e+01 9.3887918989e+01 0.0000000000e+00 0.0000e+00 -1.0000e+00
<mgrwt>
<rscale>  0 0.90635949E+02</rscale>
<asrwt>0</asrwt>
<pdfrwt beam="2">  1        1 0.17458429E-02 0.90635949E+02</pdfrwt>
<pdfrwt beam="1">  1       -1 0.27842556E-01 0.90635949E+02</pdfrwt>
<totfact> 0.72479529E+04</totfact>
</mgrwt>
</event>
<event>
 5      1 +1.6944000e+03 8.76335100e+01 7.81860800e-03 1.30868600e-01
       -1 -1    0    0    0  501 -0.0000000000e+00 +0.0000000000e+00 +1.4359827235e+02 1.4359827235e+02 0.0000000000e+00 0.0000e+00 1.0000e+00
        1 -1    0    0  501    0 +0.0000000000e+00 -0.0000000000e+00 -1.3369994707e+01 1.3369994707e+01 0.0000000000e+00 0.0000e+00 -1.0000e+00
       23  2    1    2    0    0 +0.0000000000e+00 +0.0000000000e+00 +1.3022827765e+02 1.5696826706e+02 8.7633512797e+01 0.0000e+00 0.0000e+00
      -11  1    3    3    0    0 +1.7100496967e+01 -2.5081921744e+01 +8.5176851184e+00 3.1529046206e+01 0.0000000000e+00 0.0000e+00 -1.0000e+00
       11  1    3    3    0    0 -1.7100496967e+01 +2.5081921744e+01 +1.2171059253e+02 1.2543922085e+02 0.0000000000e+00 0.0000e+00 1.0000e+00
<mgrwt>
<rscale>  0 0.87633513E+02</rscale>
<asrwt>0</asrwt>
<pdfrwt beam="2">  1        1 0.20569224E-02 0.87633513E+02</pdfrwt>
<pdfrwt beam="1">  1       -1 0.22092041E-01 0.87633513E+02</pdfrwt>
<totfact> 0.83710360E+04</totfact>
</mgrwt>
</event>
<event>
 4      1 +1.6944000e+03 3.23430300e+01 7.81860800e-03 1.57354600e-01
        2 -1    0    0  501    0 +0.0000000000e+00 +0.0000000000e+00 +1.1235337443e+02 1.1235337443e+02 0.0000000000e+00 0.0000e+00 1.0000e+00
       -2 -1    0    0    0  501 -0.0000000000e+00 -0.0000000000e+00 -2.3276373745e+00 2.3276373745e+00 0.0000000000e+00 0.0000e+00 -1.0000e+00
      -13  1    1    2    0    0 -1.2004877707e+01 -7.3496888276e+00 +8.3241956562e+01 8.4423683566e+01 0.0000000000e+00 0.0000e+00 1.0000e+00
       13  1    1    2    0    0 +1.2004877707e+01 +7.3496888276e+00 +2.6783780496e+01 3.0257328241e+01 0.0000000000e+00 0.0000e+00 -1.0000e+00
<mgrwt>
<rscale>  0 0.32343031E+02</rscale>
<asrwt>0</asrwt>
<pdfrwt beam="1">  1        2 0.17285130E-01 0.32343031E+02</pdfrwt>
<pdfrwt beam="2">  1       -2 0.35809815E-03 0.32343031E+02</pdfrwt>
<totfact> 0.17995806E+06</totfact>
</mgrwt>
</event>
<event>
 5      1 +1.6944000e+03 9.15685800e+01 7.81860800e-03 1.29909700e-01
        2 -1    0    0  501    0 +0.0000000000e+00 +0.0000000000e+00 +8.3587829669e+01 8.3587829669e+01 0.0000000000e+00 0.0000e+00 -1.0000e+00
       -2 -1    0    0    0  501 -0.0000000000e+00 -0.0000000000e+00 -2.5077826869e+01 2.5077826869e+01 0.0000000000e+00 0.0000e+00 1.0000e+00
       23  2    1    2    0    0 +0.0000000000e+00 +0.0000000000e+00 +5.8510002799e+01 1.0866565654e+02 9.1568578034e+01 0.0000e+00 0.0000e+00
      -13  1    3    3    0    0 -1.0446281372e+01 -3.8713696486e+01 +3.0308903169e+00 4.0212701802e+01 0.0000000000e+00 0.0000e+00 1.0000e+00
       13  1    3    3    0    0 +1.0446281372e+01 +3.8713696486e+01 +5.5479112482e+01 6.8452954735e+01 0.0000000000e+00 0.0000e+00 -1.0000e+00
<mgrwt>
<rscale>  0 0.91568578E+02</rscale>
<asrwt>0</asrwt>
<pdfrwt beam="1">  1        2 0.12859666E-01 0.91568578E+02</pdfrwt>
<pdfrwt beam="2">  1       -2 0.38581272E-02 0.91568578E+02</pdfrwt>
<totfact> 0.11493782E+05</totfact>
</mgrwt>
</event>
<event>
 5      1 +1.6944000e+03 9.02236500e+01 7.81860800e-03 1.30231100e-01
        2 -1    0    0  501    0 +0.0000000000e+00 +0.0000000000e+00 +1.5057901017e+02 1.5057901017e+02 0.0000000000e+00 0.0000e+00 -1.0000e+00
       -2 -1    0    0    0  501 -0.0000000000e+00 -0.0000000000e+00 -1.3515010446e+01 1.3515010446e+01 0.0000000000e+00 0.0000e+00 1.0000e+00
       23  2    1    2    0    0 +0.0000000000e+00 +0.0000000000e+00 +1.3706399973e+02 1.6409402062e+02 9.0223653116e+01 0.0000e+00 0.0000e+00
      -13  1    3    3    0    0 -3.2915263983e+01 +2.4647555595e+01 +3.4791405274e+01 5.3864259772e+01 0.0000000000e+00 0.0000e+00 1.0000e+00
       13  1    3    3    0    0 +3.2915263983e+01 -2.4647555595e+01 +1.0227259445e+02 1.1022976085e+02 0.0000000000e+00 0.0000e+00 -1.0000e+00
<mgrwt>
<rscale>  0 0.90223653E+02</rscale>
<asrwt>0</asrwt>
<pdfrwt beam="1">  1        2 0.23166000E-01 0.90223653E+02</pdfrwt>
<pdfrwt beam="2">  1       -2 0.20792325E-02 0.90223653E+02</pdfrwt>
<totfact> 0.14403801E+05</totfact>
</mgrwt>
</event>
<event>
 5      1 +1.6944000e+03 8.97944400e+01 7.81860800e-03 1.30335000e-01
       -1 -1    0    0    0  501 -0.0000000000e+00 +0.0000000000e+00 +1.7737624318e+01 1.7737624318e+01 0.0000000000e+00 0.0000e+00 1.0000e+00
        1 -1    0    0  501    0 +0.0000000000e+00 -0.0000000000e+00 -1.1364320282e+02 1.1364320282e+02 0.0000000000e+00 0.0000e+00 -1.0000e+00
       23  2    1    2    0    0 +0.0000000000e+00 +0.0000000000e+00 -9.5905578497e+01 1.3138082713e+02 8.9794441651e+01 0.0000e+00 0.0000e+00
      -13  1    3    3    0    0 -1.0023402543e+01 -3.2224695650e+01 -4.6268613698e+00 3.4063286019e+01 0.0000000000e+00 0.0000e+00 1.0000e+00
       13  1    3    3    0    0 +1.0023402543e+01 +3.2224695650e+01 -9.1278717127e+01 9.7317541115e+01 0.0000000000e+00 0.0000e+00 -1.0000e+00
<mgrwt>
<rscale>  0 0.89794442E+02</rscale>
<asrwt>0</asrwt>
<pdfrwt beam="2">  1        1 0.17483570E-01 0.89794442E+02</pdfrwt>
<pdfrwt beam="1">  1       -1 0.27288652E-02 0.89794442E+02</pdfrwt>
<totfact> 0.11124576E+05</totfact>
</mgrwt>
</event>
<event>
 4      1 +1.6944000e+03 3.19856100e+01 7.81860800e-03 1.57712300e-01
       -3 -1    0    0    0  501 -0.0000000000e+00 +0.0000000000e+00 +7.1699057438e+00 7.1699057438e+00 0.0000000000e+00 0.0000e+00 1.0000e+00
        3 -1    0    0  501    0 +0.0000000000e+00 -0.0000000000e+00 -3.5672697399e+01 3.5672697399e+01 0.0000000000e+00 0.0000e+00 -1.0000e+00
      -11  1    1    2    0    0 +1.0624043584e+01 +8.1275651652e+00 -2.5992832038e+01 2.9232771591e+01 0.0000000000e+00 0.0000e+00 -1.0000e+00
       11  1    1    2    0    0 -1.0624043584e+01 -8.1275651652e+00 -2.5099596178e+00 1.3609831552e+01 0.0000000000e+00 0.0000e+00 1.0000e+00
<mgrwt>
<rscale>  0 0.31985614E+02</rscale>
<asrwt>0</asrwt>
<pdfrwt beam="2">  1        3 0.54881073E-02 0.31985614E+02</pdfrwt>
<pdfrwt beam="1">  1       -3 0.11030624E-02 0.31985614E+02</pdfrwt>
<totfact> 0.57422988E+05</totfact>
</mgrwt>
</event>
<event>
 4      1 +1.6944000e+03 9.40738100e+01 7.81860800e-03 1.29327600e-01
       -2 -1    0    0    0  501 -0.0000000000e+00 +0.0000000000e+00 +2.6427772186e+01 2.6427772186e+01 0.0000000000e+00 0.0000e+00 -1.0000e+00
        2 -1    0    0  501    0 +0.0000000000e+00 -0.0000000000e+00 -8.3717624530e+01 8.3717624530e+01 0.0000000000e+00 0.0000e+00 1.0000e+00
      -13  1    1    2    0    0 +6.7933577472e+00 -4.5128686525e+01 -1.5309562313e+01 4.8136584374e+01 0.0000000000e+00 0.0000e+00 -1.0000e+00
       13  1    1    2    0    0 -6.7933577472e+00 +4.5128686525e+01 -4.1980290031e+01 6.2008812342e+01 0.0000000000e+00 0.0000e+00 1.0000e+00
<mgrwt>
<rscale>  0 0.94073807E+02</rscale>
<asrwt>0</asrwt>
<pdfrwt beam="2">  1        2 0.12879635E-01 0.94073807E+02</pdfrwt>
<pdfrwt beam="1">  1       -2 0.40658111E-02 0.94073807E+02</pdfrwt>
<totfact> 0.10666620E+05</totfact>
</mgrwt>
</event>
<event>
 5      1 +1.6944000e+03 8.90570000e+01 7.81860800e-03 1.30515200e-01
       -1 -1    0    0    0  501 -0.0000000000e+00 +0.0000000000e+00 +1.1350523329e+01 1.1350523329e+01 0.0000000000e+00 0.0000e+00 1.0000e+00
        1 -1    0    0  501    0 +0.0000000000e+00 -0.0000000000e+00 -1.7468685908e+02 1.7468685908e+02 0.0000000000e+00 0.0000e+00 -1.0000e+00
       23  2    1    2    0    0 +0.0000000000e+00 +0.0000000000e+00 -1.6333633575e+02 1.8603738241e+02 8.9056999034e+01 0.0000e+00 0.0000e+00
      -13  1    3    3    0    0 +3.2272131318e+00 +4.0470535491e+01 -1.1987451323e+02 1.2656294114e+02 0.0000000000e+00 0.0000e+00 -1.0000e+00
       13  1    3    3    0    0 -3.2272131318e+00 -4.0470535491e+01 -4.3461822522e+01 5.9474441271e+01 0.0000000000e+00 0.0000e+00 1.0000e+00
<mgrwt>
<rscale>  0 0.89056999E+02</rscale>
<asrwt>0</asrwt>
<pdfrwt beam="2">  1        1 0.26874901E-01 0.89056999E+02</pdfrwt>
<pdfrwt beam="1">  1       -1 0.17462344E-02 0.89056999E+02</pdfrwt>
<totfact> 0.12288331E+05</totfact>
</mgrwt>
</event>
<event>
 4      1 +1.6944000e+03 2.96016900e+01 7.81860800e-03 1.60253400e-01
       -2 -1    0    0    0  501 -0.0000000000e+00 +0.0000000000e+00 +4.7887191837e+01 4.7887191837e+01 0.0000000000e+00 0.0000e+00 -1.0000e+00
        2 -1    0    0  501    0 +0.0000000000e+00 -0.0000000000e+00 -4.5746052138e+00 4.5746052138e+00 0.0000000000e+00 0.0000e+00 1.0000e+00
      -13  1    1    2    0    0 -7.1714111439e+00 +1.2705503160e+01 +1.7241257042e+01 2.2585833895e+01 0.0000000000e+00 0.0000e+00 1.0000e+00
       13  1    1    2    0    0 +7.1714111439e+00 -1.2705503160e+01 +2.6071329580e+01 2.9875963155e+01 0.0000000000e+00 0.0000e+00 -1.0000e+00
<mgrwt>
<rscale>  0 0.29601689E+02</rscale>
<asrwt>0</asrwt>
<pdfrwt beam="2">  1        2 0.70378545E-03 0.29601689E+02</pdfrwt>
<pdfrwt beam="1">  1       -2 0.73672599E-02 0.29601689E+02</pdfrwt>
<totfact> 0.14128905E+06</totfact>
</mgrwt>
</event>
<event>
 5      1 +1.6944000e+03 9.15361500e+01 7.81860800e-03 1.29917400e-01
       -2 -1    0    0    0  501 -0.0000000000e+00 +0.0000000000e+00 +3.0950111560e+01 3.0950111560e+01 0.0000000000e+00 0.0000e+00 1.0000e+00
        2 -1    0    0  501    0 +0.0000000000e+00 -0.0000000000e+00 -6.7680419267e+01 6.7680419267e+01 0.0000000000e+00 0.0000e+00 -1.0000e+00
       23  2    1    2    0    0 +0.0000000000e+00 +0.0000000000e+00 -3.6730307707e+01 9.8630530827e+01 9.1536146450e+01 0.0000e+00 0.0000e+00
      -11  1    3    3    0    0 -1.8759220658e+01 -4.5393258162e+00 +2.6350632927e+01 3.2662971301e+01 0.0000000000e+00 0.0000e+00 1.0000e+00
       11  1    3    3    0    0 +1.8759220658e+01 +4.5393258162e+00 -6.3080940634e+01 6.5967559526e+01 0.0000000000e+00 0.0000e+00 -1.0000e+00
<mgrwt>
<rscale>  0 0.91536146E+02</rscale>
<asrwt>0</asrwt>
<pdfrwt beam="2">  1        2 0.10412372E-01 0.91536146E+02</pdfrwt>
<pdfrwt beam="1">  1       -2 0.47615556E-02 0.91536146E+02</pdfrwt>
<totfact> 0.10839259E+05</totfact>
</mgrwt>
</event>
<event>
 5      1 +1.6944000e+03 8.81606800e+01 7.81860800e-03 1.30736800e-01
        3 -1    0    0  501    0 +0.0000000000e+00 +0.0000000000e+00 +7.4416725161e+00 7.4416725161e+00 0.0000000000e+00 0.0000e+00 -1.0000e+00
       -3 -1    0    0    0  501 -0.0000000000e+00 -0.0000000000e+00 -2.6110747589e+02 2.6110747589e+02 0.0000000000e+00 0.0000e+00 1.0000e+00
       23  2    1    2    0    0 +0.0000000000e+00 +0.0000000000e+00 -2.5366580337e+02 2.6854914840e+02 8.8160678924e+01 0.0000e+00 0.0000e+00
      -11  1    3    3    0    0 +1.1882858299e+01 +3.7508208843e+01 -1.8737423070e+02 1.9146062358e+02 0.0000000000e+00 0.0000e+00 1.0000e+00
       11  1    3    3    0    0 -1.1882858299e+01 -3.7508208843e+01 -6.6291572674e+01 7.7088524824e+01 0.0000000000e+00 0.0000e+00 -1.0000e+00
<mgrwt>
<rscale>  0 0.88160679E+02</rscale>
<asrwt>0</asrwt>
<pdfrwt beam="1">  1        3 0.11448728E-02 0.88160679E+02</pdfrwt>
<pdfrwt beam="2">  1       -3 0.40170379E-01 0.88160679E+02</pdfrwt>
<totfact> 0.27681332E+04</totfact>
</mgrwt>
</event>
<event>
 5      1 +1.6944000e+03 9.03552600e+01 7.81860800e-03 1.30199400e-01
        2 -1    0    0  501    0 +0.0000000000e+00 +0.0000000000e+00 +1.0083935593e+02 1.0083935593e+02 0.0000000000e+00 0.0000e+00 1.0000e+00
       -2 -1    0    0    0  501 -0.0000000000e+00 -0.0000000000e+00 -2.0240294550e+01 2.0240294550e+01 0.0000000000e+00 0.0000e+00 -1.0000e+00
       23  2    1    2    0    0 +0.0000000000e+00 +0.0000000000e+00 +8.0599061385e+01 1.2107965049e+02 9.0355260309e+01 0.0000e+00 0.0000e+00
      -11  1    3    3    0    0 +1.7037786677e+00 +2.8790181664e+01 -6.2992036575e+00 2.9520457122e+01 0.0000000000e+00 0.0000e+00 1.0000e+00
       11  1    3    3    0    0 -1.7037786677e+00 -2.8790181664e+01 +8.6898265042e+01 9.1559193363e+01 0.0000000000e+00 0.0000e+00 -1.0000e+00
<mgrwt>
<rscale>  0 0.90355260E+02</rscale>
<asrwt>0</asrwt>
<pdfrwt beam="1">  1        2 0.15513747E-01 0.90355260E+02</pdfrwt>
<pdfrwt beam="2">  1       -2 0.31138915E-02 0.90355260E+02</pdfrwt>
<totfact> 0.12608743E+05</totfact>
</mgrwt>
</event>
<event>
 5      1 +1.6944000e+03 9.14486700e+01 7.81860800e-03 1.29938100e-01
        3 -1    0    0  501    0 +0.0000000000e+00 +0.0000000000e+00 +1.3715809307e+01 1.3715809307e+01 0.0000000000e+00 0.0000e+00 -1.0000e+00
       -3 -1    0    0    0  501 -0.0000000000e+00 -0.0000000000e+00 -1.5243102869e+02 1.5243102869e+02 0.0000000000e+00 0.0000e+00 1.0000e+00
       23  2    1    2    0    0 +0.0000000000e+00 +0.0000000000e+00 -1.3871521938e+02 1.6614683800e+02 9.1448672423e+01 0.0000e+00 0.0000e+00
      -13  1    3    3    0    0 -3.1186477415e+01 +2.8239645465e+01 -3.6824604399e+01 5.5911764761e+01 0.0000000000e+00 0.0000e+00 -1.0000e+00
       13  1    3    3    0    0 +3.1186477415e+01 -2.8239645465e+01 -1.0189061498e+02 1.1023507323e+02 0.0000000000e+00 0.0000e+00 1.0000e+00
<mgrwt>
<rscale>  0 0.91448672E+02</rscale>
<asrwt>0</asrwt>
<pdfrwt beam="1">  1        3 0.21101247E-02 0.91448672E+02</pdfrwt>
<pdfrwt beam="2">  1       -3 0.23450926E-01 0.91448672E+02</pdfrwt>
<totfact> 0.30104174E+04</totfact>
</mgrwt>
</event>
<event>
 4      1 +1.6944000e+03 2.58517200e+01 7.81860800e-03 1.64906100e-01
        2 -1    0    0  501    0 +0.0000000000e+00 +0.0000000000e+00 +1.5590685885e+01 1.5590685885e+01 0.0000000000e+00 0.0000e+00 1.0000e+00
       -2 -1    0    0    0  501 -0.0000000000e+00 -0.0000000000e+00 -1.0716516663e+01 1.0716516663e+01 0.0000000000e+00 0.0000e+00 -1.0000e+00
      -11  1    1    2    0    0 +7.1926864406e-01 +1.0627546387e+01 +9.8883744241e+00 1.4534167962e+01 0.0000000000e+00 0.0000e+00 1.0000e+00
       11  1    1    2    0    0 -7.1926864406e-01 -1.0627546387e+01 -5.0142052019e+00 1.1773034587e+01 0.0000000000e+00 0.0000e+00 -1.0000e+00
<mgrwt>
<rscale>  0 0.25851719E+02</rscale>
<asrwt>0</asrwt>
<pdfrwt beam="1">  1        2 0.23985670E-02 0.25851719E+02</pdfrwt>
<pdfrwt beam="2">  1       -2 0.16486949E-02 0.25851719E+02</pdfrwt>
<totfact> 0.22496262E+06</totfact>
</mgrwt>
</event>
<event>
 5      1 +1.6944000e+03 9.05699500e+01 7.81860800e-03 1.30147700e-01
       -2 -1    0    0    0  501 -0.0000000000e+00 +0.0000000000e+00 +2.6868490331e+01 2.6868490331e+01 0.0000000000e+00 0.0000e+00 1.0000e+00
        2 -1    0    0  501    0 +0.0000000000e+00 -0.0000000000e+00 -7.6324674162e+01 7.6324674162e+01 0.0000000000e+00 0.0000e+00 -1.0000e+00
       23  2    1    2    0    0 +0.0000000000e+00 +0.0000000000e+00 -4.9456183831e+01 1.0319316449e+02 9.0569945782e+01 0.0000e+00 0.0000e+00
      -13  1    3    3    0    0 -1.0203231078e+01 -2.7682424349e+01 -6.3871999022e+01 7.0356625853e+01 0.0000000000e+00 0.0000e+00 -1.0000e+00
       13  1    3    3    0    0 +1.0203231078e+01 +2.7682424349e+01 +1.4415815191e+01 3.2836538640e+01 0.0000000000e+00 0.0000e+00 1.0000e+00
<mgrwt>
<rscale>  0 0.90569946E+02</rscale>
<asrwt>0</asrwt>
<pdfrwt beam="2">  1        2 0.11742257E-01 0.90569946E+02</pdfrwt>
<pdfrwt beam="1">  1       -2 0.41336140E-02 0.90569946E+02</pdfrwt>
<totfact> 0.11545576E+05</totfact>
</mgrwt>
</event>
<event>
 4      1 +1.6944000e+03 1.09574400e+02 7.81860800e-03 1.26136000e-01
        2 -1    0    0  501    0 +0.0000000000e+00 +0.0000000000e+00 +2.5742226512e+02 2.5742226512e+02 0.0000000000e+00 0.0000e+00 1.0000e+00
       -2 -1    0    0    0  501 -0.0000000000e+00 -0.0000000000e+00 -1.1660369828e+01 1.1660369828e+01 0.0000000000e+00 0.0000e+00 -1.0000e+00
      -13  1    1    2    0    0 -2.3367642649e+01 +4.0151688354e+01 +5.1562478055e+01 6.9403846751e+01 0.0000000000e+00 0.0000e+00 -1.0000e+00
       13  1    1    2    0    0 +2.3367642649e+01 -4.0151688354e+01 +1.9419941723e+02 1.9967878820e+02 0.0000000000e+00 0.0000e+00 1.0000e+00
<mgrwt>
<rscale>  0 0.10957443E+03</rscale>
<asrwt>0</asrwt>
<pdfrwt beam="1">  1        2 0.39603421E-01 0.10957443E+03</pdfrwt>
<pdfrwt beam="2">  1       -2 0.17939032E-02 0.10957443E+03</pdfrwt>
<totfact> 0.10319821E+05</totfact>
</mgrwt>
</event>
<event>
 4      1 +1.6944000e+03 6.48061400e+01 7.81860800e-03 1.37870200e-01
       -1 -1    0    0    0  501 -0.0000000000e+00 +0.0000000000e+00 +2.0491896920e+01 2.0491896920e+01 0.0000000000e+00 0.0000e+00 1.0000e+00
        1 -1    0    0  501    0 +0.0000000000e+00 -0.0000000000e+00 -5.1237757685e+01 5.1237757685e+01 0.0000000000e+00 0.0000e+00 -1.0000e+00
      -13  1    1    2    0    0 +2.9913307711e+01 -3.1284009503e+00 -2.8717789474e+01 4.1584904749e+01 0.0000000000e+00 0.0000e+00 -1.0000e+00
       13  1    1    2    0    0 -2.9913307711e+01 +3.1284009503e+00 -2.0280712914e+00 3.0144749856e+01 0.0000000000e+00 0.0000e+00 1.0000e+00
<mgrwt>
<rscale>  0 0.64806137E+02</rscale>
<asrwt>0</asrwt>
<pdfrwt beam="2">  1        1 0.78827319E-02 0.64806137E+02</pdfrwt>
<pdfrwt beam="1">  1       -1 0.31525995E-02 0.64806137E+02</pdfrwt>
<totfact> 0.23808261E+05</totfact>
</mgrwt>
</event>
<event>
 5      1 +1.6944000e+03 8.95402200e+01 7.81860800e-03 1.30396900e-01
       -2 -1    0    0    0  501 -0.0000000000e+00 +0.0000000000e+00 +1.6464389178e+01 1.6464389178e+01 0.0000000000e+00 0.0000e+00 1.0000e+00
        2 -1    0    0  501    0 +0.0000000000e+00 -0.0000000000e+00 -1.2173926082e+02 1.2173926082e+02 0.0000000000e+00 0.0000e+00 -1.0000e+00
       23  2    1    2    0    0 +0.0000000000e+00 +0.0000000000e+00 -1.0527487164e+02 1.3820364999e+02 8.9540215954e+01 0.0000e+00 0.0000e+00
      -13  1    3    3    0    0 -3.6615872815e+01 +2.2107761555e+01 -3.2225672750e+01 5.3553424234e+01 0.0000000000e+00 0.0000e+00 1.0000e+00
       13  1    3    3    0    0 +3.6615872815e+01 -2.2107761555e+01 -7.3049198888e+01 8.4650225759e+01 0.0000000000e+00 0.0000e+00 -1.0000e+00
<mgrwt>
<rscale>  0 0.89540216E+02</rscale>
<asrwt>0</asrwt>
<pdfrwt beam="2">  1        2 0.18729116E-01 0.89540216E+02</pdfrwt>
<pdfrwt beam="1">  1       -2 0.25329831E-02 0.89540216E+02</pdfrwt>
<totfact> 0.13707163E+05</totfact>
</mgrwt>
</event>
<event>
 5      1 +1.6944000e+03 9.46071500e+01 7.81860800e-03 1.29206300e-01
        4 -1    0    0  501    0 +0.0000000000e+00 +0.0000000000e+00 +2.2895842499e+01 2.2895842499e+01 0.0000000000e+00 0.0000e+00 1.0000e+00
       -4 -1    0    0    0  501 -0.0000000000e+00 -0.0000000000e+00 -9.7730771965e+01 9.7730771965e+01 0.0000000000e+00 0.0000e+00 -1.0000e+00
       23  2    1    2    0    0 +0.0000000000e+00 +0.0000000000e+00 -7.4834929466e+01 1.2062661446e+02 9.4607153265e+01 0.0000e+00 0.0000e+00
      -13  1    3    3    0    0 +8.5630513990e+00 -3.6241873438e+01 -2.2625221107e-01 3.7240440782e+01 0.0000000000e+00 0.0000e+00 1.0000e+00
       13  1    3    3    0    0 -8.5630513990e+00 +3.6241873438e+01 -7.4608677255e+01 8.3386173682e+01 0.0000000000e+00 0.0000e+00 -1.0000e+00
<mgrwt>
<rscale>  0 0.94607153E+02</rscale>
<asrwt>0</asrwt>
<pdfrwt beam="1">  1        4 0.35224373E-02 0.94607153E+02</pdfrwt>
<pdfrwt beam="2">  1       -4 0.15035503E-01 0.94607153E+02</pdfrwt>
<totfact> 0.22831053E+04</totfact>
</mgrwt>
</event>
<event>
 5      1 +1.6944000e+03 8.98426900e+01 7.81860800e-03 1.30323300e-01
        3 -1    0    0  501    0 +0.0000000000e+00 +0.0000000000e+00 +2.3326109670e+02 2.3326109670e+02 0.0000000000e+00 0.0000e+00 -1.0000e+00
       -3 -1    0    0    0  501 -0.0000000000e+00 -0.0000000000e+00 -8.6509371050e+00 8.6509371050e+00 0.0000000000e+00 0.0000e+00 1.0000e+00
       23  2    1    2    0    0 +0.0000000000e+00 +0.0000000000e+00 +2.2461015959e+02 2.4191203380e+02 8.9842686438e+01 0.0000e+00 0.0000e+00
      -13  1    3    3    0    0 -1.3354760410e+01 +3.6416285327e+01 +1.7331719004e+02 1.7760445891e+02 0.0000000000e+00 0.0000e+00 -1.0000e+00
       13  1    3    3    0    0 +1.3354760410e+01 -3.6416285327e+01 +5.1292969555e+01 6.4307574891e+01 0.0000000000e+00 0.0000e+00 1.0000e+00
<mgrwt>
<rscale>  0 0.89842686E+02</rscale>
<asrwt>0</asrwt>
<pdfrwt beam="1">  1        3 0.35886318E-01 0.89842686E+02</pdfrwt>
<pdfrwt beam="2">  1       -3 0.13309136E-02 0.89842686E+02</pdfrwt>
<totfact> 0.27536038E+04</totfact>
</mgrwt>
</event>
<event>
 5      1 +1.6944000e+03 9.08293200e+01 7.81860800e-03 1.30085600e-01
        2 -1    0    0  501    0 +0.0000000000e+00 +0.0000000000e+00 +2.8714221287e+02 2.8714221287e+02 0.0000000000e+00 0.0000e+00 -1.0000e+00
       -2 -1    0    0    0  501 -0.0000000000e+00 -0.0000000000e+00 -7.1828222891e+00 7.1828222891e+00 0.0000000000e+00 0.0000e+00 1.0000e+00
       23  2    1    2    0    0 +0.0000000000e+00 +0.0000000000e+00 +2.7995939058e+02 2.9432503516e+02 9.0829323166e+01 0.0000e+00 0.0000e+00
      -11  1    3    3    0    0 -9.4629086563e+00 -3.9756824959e+01 +2.0416450576e+02 2.0821454604e+02 0.0000000000e+00 0.0000e+00 -1.0000e+00
       11  1    3    3    0    0 +9.4629086563e+00 +3.9756824959e+01 +7.5794884822e+01 8.6110489119e+01 0.0000000000e+00 0.0000e+00 1.0000e+00
<mgrwt>
<rscale>  0 0.90829323E+02</rscale>
<asrwt>0</asrwt>
<pdfrwt beam="1">  1        2 0.44175716E-01 0.90829323E+02</pdfrwt>
<pdfrwt beam="2">  1       -2 0.11050498E-02 0.90829323E+02</pdfrwt>
<totfact> 0.17856152E+05</totfact>
</mgrwt>
</event>
<event>
 4      1 +1.6944000e+03 4.28459200e+01 7.81860800e-03 1.48825500e-01
       -2 -1    0    0    0  501 -0.0000000000e+00 +0.0000000000e+00 +2.1195343654e+01 2.1195343654e+01 0.0000000000e+00 0.0000e+00 1.0000e+00
        2 -1    0    0  501    0 +0.0000000000e+00 -0.0000000000e+00 -2.1653016301e+01 2.1653016301e+01 0.0000000000e+00 0.0000e+00 -1.0000e+00
      -13  1    1    2    0    0 -1.7198777732e+01 -6.5227406348e+00 -1.1211221369e+01 2.1541485219e+01 0.0000000000e+00 0.0000e+00 -1.0000e+00
       13  1    1    2    0    0 +1.7198777732e+01 +6.5227406348e+00 +1.0753548723e+01 2.1306874736e+01 0.0000000000e+00 0.0000e+00 1.0000e+00
<mgrwt>
<rscale>  0 0.42845916E+02</rscale>
<asrwt>0</asrwt>
<pdfrwt beam="2">  1        2 0.33312333E-02 0.42845916E+02</pdfrwt>
<pdfrwt beam="1">  1       -2 0.32608221E-02 0.42845916E+02</pdfrwt>
<totfact> 0.66797511E+05</totfact>
</mgrwt>
</event>
<event>
 5      1 +1.6944000e+03 9.14082100e+01 7.81860800e-03 1.29947700e-01
        1 -1    0    0  501    0 +0.0000000000e+00 +0.0000000000e+00 +1.1148350603e+02 1.1148350603e+02 0.0000000000e+00 0.0000e+00 -1.0000e+00
       -1 -1    0    0    0  501 -0.0000000000e+00 -0.0000000000e+00 -1.8736988947e+01 1.8736988947e+01 0.0000000000e+00 0.0000e+00 1.0000e+00
       23  2    1    2    0    0 +0.0000000000e+00 +0.0000000000e+00 +9.2746517086e+01 1.3022049498e+02 9.1408210142e+01 0.0000e+00 0.0000e+00
      -11  1    3    3    0    0 -3.1266905170e+01 +2.5945312096e+01 +7.6190958618e+01 8.6347210458e+01 0.0000000000e+00 0.0000e+00 -1.0000e+00
       11  1    3    3    0    0 +3.1266905170e+01 -2.5945312096e+01 +1.6555558468e+01 4.3873284523e+01 0.0000000000e+00 0.0000e+00 1.0000e+00
<mgrwt>
<rscale>  0 0.91408210E+02</rscale>
<asrwt>0</asrwt>
<pdfrwt beam="1">  1        1 0.17151308E-01 0.91408210E+02</pdfrwt>
<pdfrwt beam="2">  1       -1 0.28826137E-02 0.91408210E+02</pdfrwt>
<totfact> 0.10565122E+05</totfact>
</mgrwt>
</event>
<event>
 4      1 +1.6944000e+03 5.78951800e+01 7.81860800e-03 1.40688300e-01
        2 -1    0    0  501    0 +0.0000000000e+00 +0.0000000000e+00 +4.8192353265e+01 4.8192353265e+01 0.0000000000e+00 0.0000e+00 -1.0000e+00
       -2 -1    0    0    0  501 -0.0000000000e+00 -0.0000000000e+00 -1.7387881108e+01 1.7387881108e+01 0.0000000000e+00 0.0000e+00 1.0000e+00
      -11  1    1    2    0    0 -1.2573388228e+00 -2.5193110054e+01 +3.1489119235e+01 4.0346478475e+01 0.0000000000e+00 0.0000e+00 -1.0000e+00
       11  1    1    2    0    0 +1.2573388228e+00 +2.5193110054e+01 -6.8464707847e-01 2.5233755898e+01 0.0000000000e+00 0.0000e+00 1.0000e+00
<mgrwt>
<rscale>  0 0.57895178E+02</rscale>
<asrwt>0</asrwt>
<pdfrwt beam="1">  1        2 0.74142082E-02 0.57895178E+02</pdfrwt>
<pdfrwt beam="2">  1       -2 0.26750586E-02 0.57895178E+02</pdfrwt>
<totfact> 0.34765369E+05</totfact>
</mgrwt>
</event>
<event>
 4      1 +1.6944000e+03 2.73573300e+01 7.81860800e-03 1.62928200e-01
       -2 -1    0    0    0  501 -0.0000000000e+00 +0.0000000000e+00 +1.7121810369e+01 1.7121810369e+01 0.0000000000e+00 0.0000e+00 1.0000e+00
        2 -1    0    0  501    0 +0.0000000000e+00 -0.0000000000e+00 -1.0927927460e+01 1.0927927460e+01 0.0000000000e+00 0.0000e+00 -1.0000e+00
      -13  1    1    2    0    0 -6.2695054460e+00 -1.1970615732e+01 +9.2107043658e-01 1.3544397746e+01 0.0000000000e+00 0.0000e+00 1.0000e+00
       13  1    1    2    0    0 +6.2695054460e+00 +1.1970615732e+01 +5.2728124722e+00 1.4505340083e+01 0.0000000000e+00 0.0000e+00 -1.0000e+00
<mgrwt>
<rscale>  0 0.27357332E+02</rscale>
<asrwt>0</asrwt>
<pdfrwt beam="2">  1        2 0.16812196E-02 0.27357332E+02</pdfrwt>
<pdfrwt beam="1">  1       -2 0.26341247E-02 0.27357332E+02</pdfrwt>
<totfact> 0.18997694E+06</totfact>
</mgrwt>
</event>
<event>
 4      1 +1.6944000e+03 3.06552100e+01 7.81860800e-03 1.59095700e-01
        2 -1    0    0  501    0 +0.0000000000e+00 +0.0000000000e+00 +4.2443999237e+00 4.2443999237e+00 0.0000000000e+00 0.0000e+00 1.0000e+00
       -2 -1    0    0    0  501 -0.0000000000e+00 -0.0000000000e+00 -5.5351869137e+01 5.5351869137e+01 0.0000000000e+00 0.0000e+00 -1.0000e+00
      -11  1    1    2    0    0 +1.4295156327e+01 -2.8368223097e+00 -1.6324680600e+01 2.1883652618e+01 0.0000000000e+00 0.0000e+00 1.0000e+00
       11  1    1    2    0    0 -1.4295156327e+01 +2.8368223097e+00 -3.4782788613e+01 3.7712616442e+01 0.0000000000e+00 0.0000e+00 -1.0000e+00
<mgrwt>
<rscale>  0 0.30655210E+02</rscale>
<asrwt>0</asrwt>
<pdfrwt beam="1">  1        2 0.65298466E-03 0.30655210E+02</pdfrwt>
<pdfrwt beam="2">  1       -2 0.85156715E-02 0.30655210E+02</pdfrwt>
<totfact> 0.12747550E+06</totfact>
</mgrwt>
</event>
<event>
 4      1 +1.6944000e+03 2.38991900e+01 7.81860800e-03 1.67733600e-01
       -1 -1    0    0    0  501 -0.0000000000e+00 +0.0000000000e+00 +2.8863060399e+01 2.8863060399e+01 0.0000000000e+00 0.0000e+00 -1.0000e+00
        1 -1    0    0  501    0 +0.0000000000e+00 -0.0000000000e+00 -4.9472523070e+00 4.9472523070e+00 0.0000000000e+00 0.0000e+00 1.0000e+00
      -11  1    1    2    0    0 +1.1084859759e+01 +1.1387599551e+00 +5.8530037624e+00 1.2586840078e+01 0.0000000000e+00 0.0000e+00 1.0000e+00
       11  1    1    2    0    0 -1.1084859759e+01 -1.1387599551e+00 +1.8062804329e+01 2.1223472627e+01 0.0000000000e+00 0.0000e+00 -1.0000e+00
<mgrwt>
<rscale>  0 0.23899192E+02</rscale>
<asrwt>0</asrwt>
<pdfrwt beam="2">  1        1 0.76111576E-03 0.23899192E+02</pdfrwt>
<pdfrwt beam="1">  1       -1 0.44404707E-02 0.23899192E+02</pdfrwt>
<totfact> 0.24586820E+06</totfact>
</mgrwt>
</event>
<event>
 5      1 +1.6944000e+03 9.12687900e+01 7.81860800e-03 1.29980800e-01
        2 -1    0    0  501    0 +0.0000000000e+00 +0.0000000000e+00 +3.2494957824e+02 3.2494957824e+02 0.0000000000e+00 0.0000e+00 -1.0000e+00
       -2 -1    0    0    0  501 -0.0000000000e+00 -0.0000000000e+00 -6.4086799000e+00 6.4086799000e+00 0.0000000000e+00 0.0000e+00 1.0000e+00
       23  2    1    2    0    0 +0.0000000000e+00 +0.0000000000e+00 +3.1854089834e+02 3.3135825814e+02 9.1268786134e+01 0.0000e+00 0.0000e+00
      -11  1    3    3    0    0 -4.4999250836e+01 +2.3908541438e+00 +1.8541288284e+02 1.9081034009e+02 0.0000000000e+00 0.0000e+00 -1.0000e+00
       11  1    3    3    0    0 +4.4999250836e+01 -2.3908541438e+00 +1.3312801550e+02 1.4054791806e+02 0.0000000000e+00 0.0000e+00 1.0000e+00
<mgrwt>
<rscale>  0 0.91268786E+02</rscale>
<asrwt>0</asrwt>
<pdfrwt beam="1">  1        2 0.49992230E-01 0.91268786E+02</pdfrwt>
<pdfrwt beam="2">  1       -2 0.98595101E-03 0.91268786E+02</pdfrwt>
<totfact> 0.18457200E+05</totfact>
</mgrwt>
</event>
<event>
 4      1 +1.6944000e+03 4.42794900e+01 7.81860800e-03 1.47889000e-01
       -2 -1    0    0    0  501 -0.0000000000e+00 +0.0000000000e+00 +3.5465983095e+00 3.5465983095e+00 0.0000000000e+00 0.0000e+00 1.0000e+00
        2 -1    0    0  501    0 +0.0000000000e+00 -0.0000000000e+00 -1.3820799970e+02 1.3820799970e+02 0.0000000000e+00 0.0000e+00 -1.0000e+00
      -11  1    1    2    0    0 -9.7944058358e+00 -1.7530347706e+01 -9.7178091457e+01 9.9231169174e+01 0.0000000000e+00 0.0000e+00 -1.0000e+00
       11  1    1    2    0    0 +9.7944058358e+00 +1.7530347706e+01 -3.7483309931e+01 4.2523428833e+01 0.0000000000e+00 0.0000e+00 1.0000e+00
<mgrwt>
<rscale>  0 0.44279488E+02</rscale>
<asrwt>0</asrwt>
<pdfrwt beam="2">  1        2 0.21262767E-01 0.44279488E+02</pdfrwt>
<pdfrwt beam="1">  1       -2 0.54563057E-03 0.44279488E+02</pdfrwt>
<totfact> 0.88764220E+05</totfact>
</mgrwt>
</event>
<event>
 4      1 +1.6944000e+03 2.50275100e+01 7.81860800e-03 1.66060700e-01
        4 -1    0    0  501    0 +0.0000000000e+00 +0.0000000000e+00 +7.8644962445e+00 7.8644962445e+00 0.0000000000e+00 0.0000e+00 1.0000e+00
       -4 -1    0    0    0  501 -0.0000000000e+00 -0.0000000000e+00 -1.9911510870e+01 1.9911510870e+01 0.0000000000e+00 0.0000e+00 -1.0000e+00
      -11  1    1    2    0    0 +1.1154308694e+01 -5.4112251642e+00 -7.9115190474e+00 1.4706872334e+01 0.0000000000e+00 0.0000e+00 -1.0000e+00
       11  1    1    2    0    0 -1.1154308694e+01 +5.4112251642e+00 -4.1354955778e+00 1.3069134780e+01 0.0000000000e+00 0.0000e+00 1.0000e+00
<mgrwt>
<rscale>  0 0.25027505E+02</rscale>
<asrwt>0</asrwt>
<pdfrwt beam="1">  1        4 0.12099225E-02 0.25027505E+02</pdfrwt>
<pdfrwt beam="2">  1       -4 0.30633093E-02 0.25027505E+02</pdfrwt>
<totfact> 0.78428986E+05</totfact>
</mgrwt>
</event>
<event>
 4      1 +1.6944000e+03 2.26150600e+01 7.81860800e-03 1.69782700e-01
       -2 -1    0    0    0  501 -0.0000000000e+00 +0.0000000000e+00 +5.6951708907e+01 5.6951708907e+01 0.0000000000e+00 0.0000e+00 1.0000e+00
        2 -1    0    0  501    0 +0.0000000000e+00 -0.0000000000e+00 -2.2450644412e+00 2.2450644412e+00 0.0000000000e+00 0.0000e+00 -1.0000e+00
      -13  1    1    2    0    0 +9.8101042833e+00 -3.1314336030e+00 +1.5127160230e+01 1.8299590134e+01 0.0000000000e+00 0.0000e+00 -1.0000e+00
       13  1    1    2    0    0 -9.8101042833e+00 +3.1314336030e+00 +3.9579484236e+01 4.0897183214e+01 0.0000000000e+00 0.0000e+00 1.0000e+00
<mgrwt>
<rscale>  0 0.22615062E+02</rscale>
<asrwt>0</asrwt>
<pdfrwt beam="2">  1        2 0.34539457E-03 0.22615062E+02</pdfrwt>
<pdfrwt beam="1">  1       -2 0.87618003E-02 0.22615062E+02</pdfrwt>
<totfact> 0.25341200E+06</totfact>
</mgrwt>
</event>
<event>
 4      1 +1.6944000e+03 2.44387300e+01 7.81860800e-03 1.66919700e-01
       -2 -1    0    0    0  501 -0.0000000000e+00 +0.0000000000e+00 +1.6475660733e+01 1.6475660733e+01 0.0000000000e+00 0.0000e+00 1.0000e+00
        2 -1    0    0  501    0 +0.0000000000e+00 -0.0000000000e+00 -9.0626336121e+00 9.0626336121e+00 0.0000000000e+00 0.0000e+00 -1.0000e+00
      -13  1    1    2    0    0 +9.7640287178e-01 +1.2173257573e+01 +3.2739897873e+00 1.2643598050e+01 0.0000000000e+00 0.0000e+00 -1.0000e+00
       13  1    1    2    0    0 -9.7640287178e-01 -1.2173257573e+01 +4.1390373338e+00 1.2894696296e+01 0.0000000000e+00 0.0000e+00 1.0000e+00
<mgrwt>
<rscale>  0 0.24438730E+02</rscale>
<asrwt>0</asrwt>
<pdfrwt beam="2">  1        2 0.13942513E-02 0.24438730E+02</pdfrwt>
<pdfrwt beam="1">  1       -2 0.25347170E-02 0.24438730E+02</pdfrwt>
<totfact> 0.24511360E+06</totfact>
</mgrwt>
</event>
<event>
 5      1 +1.6944000e+03 9.32776000e+01 7.81860800e-03 1.29510300e-01
        3 -1    0    0  501    0 +0.0000000000e+00 +0.0000000000e+00 +2.5337924956e+02 2.5337924956e+02 0.0000000000e+00 0.0000e+00 -1.0000e+00
       -3 -1    0    0    0  501 -0.0000000000e+00 -0.0000000000e+00 -8.5846720154e+00 8.5846720154e+00 0.0000000000e+00 0.0000e+00 1.0000e+00
       23  2    1    2    0    0 +0.0000000000e+00 +0.0000000000e+00 +2.4479457755e+02 2.6196392158e+02 9.3277601878e+01 0.0000e+00 0.0000e+00
      -11  1    3    3    0    0 -3.7117474458e+01 +2.4728949325e+01 +8.4100523304e+01 9.5195198749e+01 0.0000000000e+00 0.0000e+00 1.0000e+00
       11  1    3    3    0    0 +3.7117474458e+01 -2.4728949325e+01 +1.6069405425e+02 1.6676872283e+02 0.0000000000e+00 0.0000e+00 -1.0000e+00
<mgrwt>
<rscale>  0 0.93277602E+02</rscale>
<asrwt>0</asrwt>
<pdfrwt beam="1">  1        3 0.38981417E-01 0.93277602E+02</pdfrwt>
<pdfrwt beam="2">  1       -3 0.13207190E-02 0.93277602E+02</pdfrwt>
<totfact> 0.24057997E+04</totfact>
</mgrwt>
</event>
<event>
 4      1 +1.6944000e+03 2.58162700e+01 7.81860800e-03 1.64954700e-01
        1 -1    0    0  501    0 +0.0000000000e+00 +0.0000000000e+00 +3.6566957003e+01 3.6566957003e+01 0.0000000000e+00 0.0000e+00 -1.0000e+00
       -1 -1    0    0    0  501 -0.0000000000e+00 -0.0000000000e+00 -4.5565727573e+00 4.5565727573e+00 0.0000000000e+00 0.0000e+00 1.0000e+00
      -11  1    1    2    0    0 -1.2312992303e+01 -9.7530115585e-01 +2.1977939792e+01 2.5210926783e+01 0.0000000000e+00 0.0000e+00 -1.0000e+00
       11  1    1    2    0    0 +1.2312992303e+01 +9.7530115585e-01 +1.0032444454e+01 1.5912602977e+01 0.0000000000e+00 0.0000e+00 1.0000e+00
<mgrwt>
<rscale>  0 0.25816274E+02</rscale>
<asrwt>0</asrwt>
<pdfrwt beam="1">  1        1 0.56256855E-02 0.25816274E+02</pdfrwt>
<pdfrwt beam="2">  1       -1 0.70101122E-03 0.25816274E+02</pdfrwt>
<totfact> 0.22849422E+06</totfact>
</mgrwt>
</event>
<event>
 4      1 +1.6944000e+03 1.48844100e+02 7.81860800e-03 1.20190100e-01
       -4 -1    0    0    0  501 -0.0000000000e+00 +0.0000000000e+00 +1.0303260526e+02 1.0303260526e+02 0.0000000000e+00 0.0000e+00 1.0000e+00
        4 -1    0    0  501    0 +0.0000000000e+00 -0.0000000000e+00 -5.3756216023e+01 5.3756216023e+01 0.0000000000e+00 0.0000e+00 -1.0000e+00
      -13  1    1    2    0    0 -1.4530893718e+01 -7.0095640321e+01 +3.2026449596e+00 7.1657536930e+01 0.0000000000e+00 0.0000e+00 1.0000e+00
       13  1    1    2    0    0 +1.4530893718e+01 +7.0095640321e+01 +4.6073744282e+01 8.5131284358e+01 0.0000000000e+00 0.0000e+00 -1.0000e+00
<mgrwt>
<rscale>  0 0.14884412E+03</rscale>
<asrwt>0</asrwt>
<pdfrwt beam="2">  1        4 0.82701871E-02 0.14884412E+03</pdfrwt>
<pdfrwt beam="1">  1       -4 0.15851170E-01 0.14884412E+03</pdfrwt>
<totfact> 0.59591800E+03</totfact>
</mgrwt>
</event>
<event>
 4      1 +1.6944000e+03 2.72500600e+01 7.81860800e-03 1.63063900e-01
       -4 -1    0    0    0  501 -0.0000000000e+00 +0.0000000000e+00 +5.6079147432e+01 5.6079147432e+01 0.0000000000e+00 0.0000e+00 -1.0000e+00
        4 -1    0    0  501    0 +0.0000000000e+00 -0.0000000000e+00 -3.3103478032e+00 3.3103478032e+00 0.0000000000e+00 0.0000e+00 1.0000e+00
      -13  1    1    2    0    0 +8.3714260007e+00 +9.8699439552e+00 +3.5668067795e+01 3.7943479376e+01 0.0000000000e+00 0.0000e+00 1.0000e+00
       13  1    1    2    0    0 -8.3714260007e+00 -9.8699439552e+00 +1.7100731834e+01 2.1446015859e+01 0.0000000000e+00 0.0000e+00 -1.0000e+00
<mgrwt>
<rscale>  0 0.27250063E+02</rscale>
<asrwt>0</asrwt>
<pdfrwt beam="2">  1        4 0.50928432E-03 0.27250063E+02</pdfrwt>
<pdfrwt beam="1">  1       -4 0.86275605E-02 0.27250063E+02</pdfrwt>
<totfact> 0.58055897E+05</totfact>
</mgrwt>
</event>
<event>
 5      1 +1.6944000e+03 9.33371500e+01 7.81860800e-03 1.29496600e-01
        2 -1    0    0  501    0 +0.0000000000e+00 +0.0000000000e+00 +3.6956736428e+01 3.6956736428e+01 0.0000000000e+00 0.0000e+00 -1.0000e+00
       -2 -1    0    0    0  501 -0.0000000000e+00 -0.0000000000e+00 -5.8932579477e+01 5.8932579477e+01 0.0000000000e+00 0.0000e+00 1.0000e+00
       23  2    1    2    0    0 +0.0000000000e+00 +0.0000000000e+00 -2.1975843049e+01 9.5889315905e+01 9.3337148162e+01 0.0000e+00 0.0000e+00
      -13  1    3    3    0    0 +3.0190098975e+00 +2.6455241399e+01 -5.0362952902e+01 5.6968598747e+01 0.0000000000e+00 0.0000e+00 1.0000e+00
       13  1    3    3    0    0 -3.0190098975e+00 -2.6455241399e+01 +2.8387109854e+01 3.8920717158e+01 0.0000000000e+00 0.0000e+00 -1.0000e+00
<mgrwt>
<rscale>  0 0.93337148E+02</rscale>
<asrwt>0</asrwt>
<pdfrwt beam="1">  1        2 0.56856518E-02 0.93337148E+02</pdfrwt>
<pdfrwt beam="2">  1       -2 0.90665506E-02 0.93337148E+02</pdfrwt>
<totfact> 0.87265064E+04</totfact>
</mgrwt>
</event>
<event>
 5      1 +1.6944000e+03 1.05284900e+02 7.81860800e-03 1.26955900e-01
        1 -1    0    0  501    0 +0.0000000000e+00 +0.0000000000e+00 +5.3172792763e+02 5.3172792763e+02 0.0000000000e+00 0.0000e+00 -1.0000e+00
       -1 -1    0    0    0  501 -0.0000000000e+00 -0.0000000000e+00 -5.2117396270e+00 5.2117396270e+00 0.0000000000e+00 0.0000e+00 1.0000e+00
       23  2    1    2    0    0 +0.0000000000e+00 +0.0000000000e+00 +5.2651618800e+02 5.3693966725e+02 1.0528489942e+02 0.0000e+00 0.0000e+00
      -13  1    3    3    0    0 -3.4303341965e+01 +3.9235429055e+01 +3.0111047644e+02 3.0558739697e+02 0.0000000000e+00 0.0000e+00 -1.0000e+00
       13  1    3    3    0    0 +3.4303341965e+01 -3.9235429055e+01 +2.2540571156e+02 2.3135227028e+02 0.0000000000e+00 0.0000e+00 1.0000e+00
<mgrwt>
<rscale>  0 0.10528490E+03</rscale>
<asrwt>0</asrwt>
<pdfrwt beam="1">  1        1 0.81804254E-01 0.10528490E+03</pdfrwt>
<pdfrwt beam="2">  1       -1 0.80180652E-03 0.10528490E+03</pdfrwt>
<totfact> 0.95517094E+04</totfact>
</mgrwt>
</event>
<event>
 5      1 +1.6944000e+03 8.64247100e+01 7.81860800e-03 1.31174800e-01
       -3 -1    0    0    0  501 -0.0000000000e+00 +0.0000000000e+00 +1.0997334387e+01 1.0997334387e+01 0.0000000000e+00 0.0000e+00 1.0000e+00
        3 -1    0    0  501    0 +0.0000000000e+00 -0.0000000000e+00 -1.6979637595e+02 1.6979637595e+02 0.0000000000e+00 0.0000e+00 -1.0000e+00
       23  2    1    2    0    0 +0.0000000000e+00 +0.0000000000e+00 -1.5879904156e+02 1.8079371034e+02 8.6424707671e+01 0.0000e+00 0.0000e+00
      -11  1    3    3    0    0 -2.3178466688e+01 +3.5460948323e+01 -9.7222318136e+01 1.0605139941e+02 0.0000000000e+00 0.0000e+00 -1.0000e+00
       11  1    3    3    0    0 +2.3178466688e+01 -3.5460948323e+01 -6.1576723429e+01 7.4742310924e+01 0.0000000000e+00 0.0000e+00 1.0000e+00
<mgrwt>
<rscale>  0 0.86424708E+02</rscale>
<asrwt>0</asrwt>
<pdfrwt beam="2">  1        3 0.26122522E-01 0.86424708E+02</pdfrwt>
<pdfrwt beam="1">  1       -3 0.16918974E-02 0.86424708E+02</pdfrwt>
<totfact> 0.34093198E+04</totfact>
</mgrwt>
</event>
<event>
 5      1 +1.6944000e+03 9.07611800e+01 7.81860800e-03 1.30101900e-01
        2 -1    0    0  501    0 +0.0000000000e+00 +0.0000000000e+00 +1.1164383148e+01 1.1164383148e+01 0.0000000000e+00 0.0000e+00 -1.0000e+00
       -2 -1    0    0    0  501 -0.0000000000e+00 -0.0000000000e+00 -1.8446139919e+02 1.8446139919e+02 0.0000000000e+00 0.0000e+00 1.0000e+00
       23  2    1    2    0    0 +0.0000000000e+00 +0.0000000000e+00 -1.7329701604e+02 1.9562578234e+02 9.0761175324e+01 0.0000e+00 0.0000e+00
      -11  1    3    3    0    0 +2.1826036962e+01 -1.9345627976e+01 -1.6158572358e+02 1.6419675782e+02 0.0000000000e+00 0.0000e+00 1.0000e+00
       11  1    3    3    0    0 -2.1826036962e+01 +1.9345627976e+01 -1.1711292456e+01 3.1429024520e+01 0.0000000000e+00 0.0000e+00 -1.0000e+00
<mgrwt>
<rscale>  0 0.90761175E+02</rscale>
<asrwt>0</asrwt>
<pdfrwt beam="1">  1        2 0.17175972E-02 0.90761175E+02</pdfrwt>
<pdfrwt beam="2">  1       -2 0.28378679E-01 0.90761175E+02</pdfrwt>
<totfact> 0.65239627E+04</totfact>
</mgrwt>
</event>
<event>
 5      1 +1.6944000e+03 1.12806300e+02 7.81860800e-03 1.25545900e-01
        1 -1    0    0  501    0 +0.0000000000e+00 +0.0000000000e+00 +3.5913542229e+02 3.5913542229e+02 0.0000000000e+00 0.0000e+00 -1.0000e+00
       -1 -1    0    0    0  501 -0.0000000000e+00 -0.0000000000e+00 -8.8582679242e+00 8.8582679242e+00 0.0000000000e+00 0.0000e+00 1.0000e+00
       23  2    1    2    0    0 +0.0000000000e+00 +0.0000000000e+00 +3.5027715437e+02 3.6799369022e+02 1.1280634365e+02 0.0000e+00 0.0000e+00
      -13  1    3    3    0    0 +3.4447213568e+00 -5.4787293589e+01 +2.1739650480e+02 2.2422032456e+02 0.0000000000e+00 0.0000e+00 -1.0000e+00
       13  1    3    3    0    0 -3.4447213568e+00 +5.4787293589e+01 +1.3288064956e+02 1.4377336566e+02 0.0000000000e+00 0.0000e+00 1.0000e+00
<mgrwt>
<rscale>  0 0.11280634E+03</rscale>
<asrwt>0</asrwt>
<pdfrwt beam="1">  1        1 0.55251592E-01 0.11280634E+03</pdfrwt>
<pdfrwt beam="2">  1       -1 0.13628107E-02 0.11280634E+03</pdfrwt>
<totfact> 0.74731126E+04</totfact>
</mgrwt>
</event>
<event>
 4      1 +1.6944000e+03 2.29464400e+01 7.81860800e-03 1.69238000e-01
       -3 -1    0    0    0  501 -0.0000000000e+00 +0.0000000000e+00 +9.2013807941e+01 9.2013807941e+01 0.0000000000e+00 0.0000e+00 -1.0000e+00
        3 -1    0    0  501    0 +0.0000000000e+00 -0.0000000000e+00 -1.4305984712e+00 1.4305984712e+00 0.0000000000e+00 0.0000e+00 1.0000e+00
      -11  1    1    2    0    0 -3.4666080869e+00 -1.0829178530e+01 +5.1529424530e+01 5.2769025684e+01 0.0000000000e+00 0.0000e+00 -1.0000e+00
       11  1    1    2    0    0 +3.4666080869e+00 +1.0829178530e+01 +3.9053784940e+01 4.0675380728e+01 0.0000000000e+00 0.0000e+00 1.0000e+00
<mgrwt>
<rscale>  0 0.22946443E+02</rscale>
<asrwt>0</asrwt>
<pdfrwt beam="2">  1        3 0.22009214E-03 0.22946443E+02</pdfrwt>
<pdfrwt beam="1">  1       -3 0.14155966E-01 0.22946443E+02</pdfrwt>
<totfact> 0.10681695E+06</totfact>
</mgrwt>
</event>
<event>
 5      1 +1.6944000e+03 9.25721600e+01 7.81860800e-03 1.29674000e-01
       -1 -1    0    0    0  501 -0.0000000000e+00 +0.0000000000e+00 +2.1954199411e+01 2.1954199411e+01 0.0000000000e+00 0.0000e+00 1.0000e+00
        1 -1    0    0  501    0 +0.0000000000e+00 -0.0000000000e+00 -9.7585033523e+01 9.7585033523e+01 0.0000000000e+00 0.0000e+00 -1.0000e+00
       23  2    1    2    0    0 +0.0000000000e+00 +0.0000000000e+00 -7.5630834112e+01 1.1953923293e+02 9.2572161809e+01 0.0000e+00 0.0000e+00
      -11  1    3    3    0    0 +4.0555966395e+01 -2.1911252776e+01 -4.3219181493e+01 6.3188504155e+01 0.0000000000e+00 0.0000e+00 1.0000e+00
       11  1    3    3    0    0 -4.0555966395e+01 +2.1911252776e+01 -3.2411652619e+01 5.6350728779e+01 0.0000000000e+00 0.0000e+00 -1.0000e+00
<mgrwt>
<rscale>  0 0.92572162E+02</rscale>
<asrwt>0</asrwt>
<pdfrwt beam="2">  1        1 0.15013082E-01 0.92572162E+02</pdfrwt>
<pdfrwt beam="1">  1       -1 0.33775692E-02 0.92572162E+02</pdfrwt>
<totfact> 0.99799372E+04</totfact>
</mgrwt>
</event>
<event>
 5      1 +1.6944000e+03 9.24254600e+01 7.81860800e-03 1.29708200e-01
       -2 -1    0    0    0  501 -0.0000000000e+00 +0.0000000000e+00 +1.1742244299e+02 1.1742244299e+02 0.0000000000e+00 0.0000e+00 1.0000e+00
        2 -1    0    0  501    0 +0.0000000000e+00 -0.0000000000e+00 -1.8187463728e+01 1.8187463728e+01 0.0000000000e+00 0.0000e+00 -1.0000e+00
       23  2    1    2    0    0 +0.0000000000e+00 +0.0000000000e+00 +9.9234979260e+01 1.3560990672e+02 9.2425460188e+01 0.0000e+00 0.0000e+00
      -11  1    3    3    0    0 -1.1369464154e+01 +4.2920128148e+01 +6.8419543471e+01 8.1563693174e+01 0.0000000000e+00 0.0000e+00 1.0000e+00
       11  1    3    3    0    0 +1.1369464154e+01 -4.2920128148e+01 +3.0815435789e+01 5.4046213542e+01 0.0000000000e+00 0.0000e+00 -1.0000e+00
<mgrwt>
<rscale>  0 0.92425460E+02</rscale>
<asrwt>0</asrwt>
<pdfrwt beam="2">  1        2 0.27980714E-02 0.92425460E+02</pdfrwt>
<pdfrwt beam="1">  1       -2 0.18064991E-01 0.92425460E+02</pdfrwt>
<totfact> 0.73396828E+04</totfact>
</mgrwt>
</event>
<event>
 5      1 +1.6944000e+03 9.16333600e+01 7.81860800e-03 1.29894400e-01
        1 -1    0    0  501    0 +0.0000000000e+00 +0.0000000000e+00 +2.6777545195e+02 2.6777545195e+02 0.0000000000e+00 0.0000e+00 -1.0000e+00
       -1 -1    0    0    0  501 -0.0000000000e+00 -0.0000000000e+00 -7.8392846554e+00 7.8392846554e+00 0.0000000000e+00 0.0000e+00 1.0000e+00
       23  2    1    2    0    0 +0.0000000000e+00 +0.0000000000e+00 +2.5993616729e+02 2.7561473661e+02 9.1633356188e+01 0.0000e+00 0.0000e+00
      -13  1    3    3    0    0 +1.8881720412e+00 +4.3317384193e+01 +8.5435686355e+01 9.5808232788e+01 0.0000000000e+00 0.0000e+00 1.0000e+00
       13  1    3    3    0    0 -1.8881720412e+00 -4.3317384193e+01 +1.7450048094e+02 1.7980650382e+02 0.0000000000e+00 0.0000e+00 -1.0000e+00
<mgrwt>
<rscale>  0 0.91633356E+02</rscale>
<asrwt>0</asrwt>
<pdfrwt beam="1">  1        1 0.41196216E-01 0.91633356E+02</pdfrwt>
<pdfrwt beam="2">  1       -1 0.12060440E-02 0.91633356E+02</pdfrwt>
<totfact> 0.12367874E+05</totfact>
</mgrwt>
</event>
<event>
 4      1 +1.6944000e+03 2.72208800e+01 7.81860800e-03 1.63101000e-01
        3 -1    0    0  501    0 +0.0000000000e+00 +0.0000000000e+00 +5.4105253957e+01 5.4105253957e+01 0.0000000000e+00 0.0000e+00 -1.0000e+00
       -3 -1    0    0    0  501 -0.0000000000e+00 -0.0000000000e+00 -3.4237718086e+00 3.4237718086e+00 0.0000000000e+00 0.0000e+00 1.0000e+00
      -11  1    1    2    0    0 +1.2521032171e+01 -2.7107918566e+00 +1.5628359690e+01 2.0208173241e+01 0.0000000000e+00 0.0000e+00 1.0000e+00
       11  1    1    2    0    0 -1.2521032171e+01 +2.7107918566e+00 +3.5053122458e+01 3.7320852524e+01 0.0000000000e+00 0.0000e+00 -1.0000e+00
<mgrwt>
<rscale>  0 0.27220878E+02</rscale>
<asrwt>0</asrwt>
<pdfrwt beam="1">  1        3 0.83238846E-02 0.27220878E+02</pdfrwt>
<pdfrwt beam="2">  1       -3 0.52673417E-03 0.27220878E+02</pdfrwt>
<totfact> 0.80011438E+05</totfact>
</mgrwt>
</event>
<event>
 5      1 +1.6944000e+03 9.15873500e+01 7.81860800e-03 1.29905300e-01
       -1 -1    0    0    0  501 -0.0000000000e+00 +0.0000000000e+00 +8.3569622250e+01 8.3569622250e+01 0.0000000000e+00 0.0000e+00 1.0000e+00
        1 -1    0    0  501    0 +0.0000000000e+00 -0.0000000000e+00 -2.5093578519e+01 2.5093578519e+01 0.0000000000e+00 0.0000e+00 -1.0000e+00
       23  2    1    2    0    0 +0.0000000000e+00 +0.0000000000e+00 +5.8476043731e+01 1.0866320077e+02 9.1587354535e+01 0.0000e+00 0.0000e+00
      -13  1    3    3    0    0 -4.3167903381e+01 -1.4785855817e+01 +2.4647319869e+01 5.1861158792e+01 0.0000000000e+00 0.0000e+00 1.0000e+00
       13  1    3    3    0    0 +4.3167903381e+01 +1.4785855817e+01 +3.3828723862e+01 5.6802041976e+01 0.0000000000e+00 0.0000e+00 -1.0000e+00
<mgrwt>
<rscale>  0 0.91587355E+02</rscale>
<asrwt>0</asrwt>
<pdfrwt beam="2">  1        1 0.38605506E-02 0.91587355E+02</pdfrwt>
<pdfrwt beam="1">  1       -1 0.12856865E-01 0.91587355E+02</pdfrwt>
<totfact> 0.83060083E+04</totfact>
</mgrwt>
</event>
<event>
 4      1 +1.6944000e+03 2.27402500e+01 7.81860800e-03 1.69575600e-01
        2 -1    0    0  501    0 +0.0000000000e+00 +0.0000000000e+00 +5.2405788662e+00 5.2405788662e+00 0.0000000000e+00 0.0000e+00 1.0000e+00
       -2 -1    0    0    0  501 -0.0000000000e+00 -0.0000000000e+00 -2.4668972576e+01 2.4668972576e+01 0.0000000000e+00 0.0000e+00 -1.0000e+00
      -13  1    1    2    0    0 -3.7966379474e+00 +1.0001164163e+01 -4.6470877678e+00 1.1663325814e+01 0.0000000000e+00 0.0000e+00 -1.0000e+00
       13  1    1    2    0    0 +3.7966379474e+00 -1.0001164163e+01 -1.4781305943e+01 1.8246225629e+01 0.0000000000e+00 0.0000e+00 1.0000e+00
<mgrwt>
<rscale>  0 0.22740246E+02</rscale>
<asrwt>0</asrwt>
<pdfrwt beam="1">  1        2 0.80624289E-03 0.22740246E+02</pdfrwt>
<pdfrwt beam="2">  1       -2 0.37952266E-02 0.22740246E+02</pdfrwt>
<totfact> 0.27718886E+06</totfact>
</mgrwt>
</event>
<event>
 5      1 +1.6944000e+03 9.00139800e+01 7.81860800e-03 1.30281800e-01
       -1 -1    0    0    0  501 -0.0000000000e+00 +0.0000000000e+00 +1.3814039586e+01 1.3814039586e+01 0.0000000000e+00 0.0000e+00 1.0000e+00
        1 -1    0    0  501    0 +0.0000000000e+00 -0.0000000000e+00 -1.4663553182e+02 1.4663553182e+02 0.0000000000e+00 0.0000e+00 -1.0000e+00
       23  2    1    2    0    0 +0.0000000000e+00 +0.0000000000e+00 -1.3282149224e+02 1.6044957141e+02 9.0013977609e+01 0.0000e+00 0.0000e+00
      -11  1    3    3    0    0 -4.0103475466e+01 +1.6070286442e+01 -4.3928233315e+01 6.1613574259e+01 0.0000000000e+00 0.0000e+00 1.0000e+00
       11  1    3    3    0    0 +4.0103475466e+01 -1.6070286442e+01 -8.8893258923e+01 9.8835997150e+01 0.0000000000e+00 0.0000e+00 -1.0000e+00
<mgrwt>
<rscale>  0 0.90013978E+02</rscale>
<asrwt>0</asrwt>
<pdfrwt beam="2">  1        1 0.22559313E-01 0.90013978E+02</pdfrwt>
<pdfrwt beam="1">  1       -1 0.21252369E-02 0.90013978E+02</pdfrwt>
<totfact> 0.11559815E+05</totfact>
</mgrwt>
</event>
<event>
 4      1 +1.6944000e+03 3.92522600e+01 7.81860800e-03 1.51378700e-01
       -2 -1    0    0    0  501 -0.0000000000e+00 +0.0000000000e+00 +6.0121702446e+00 6.0121702446e+00 0.0000000000e+00 0.0000e+00 -1.0000e+00
        2 -1    0    0  501    0 +0.0000000000e+00 -0.0000000000e+00 -6.4067536974e+01 6.4067536974e+01 0.0000000000e+00 0.0000e+00 1.0000e+00
      -11  1    1    2    0    0 -7.9096848207e+00 -1.3020448432e+01 -5.1117936284e+01 5.3339840657e+01 0.0000000000e+00 0.0000e+00 1.0000e+00
       11  1    1    2    0    0 +7.9096848207e+00 +1.3020448432e+01 -6.9374304454e+00 1.6739866562e+01 0.0000000000e+00 0.0000e+00 -1.0000e+00
<mgrwt>
<rscale>  0 0.39252258E+02</rscale>
<asrwt>0</asrwt>
<pdfrwt beam="2">  1        2 0.98565443E-02 0.39252258E+02</pdfrwt>
<pdfrwt beam="1">  1       -2 0.92494925E-03 0.39252258E+02</pdfrwt>
<totfact> 0.99044453E+05</totfact>
</mgrwt>
</event>
<event>
 4      1 +1.6944000e+03 2.52319400e+01 7.81860800e-03 1.65769300e-01
       -2 -1    0    0    0  501 -0.0000000000e+00 +0.0000000000e+00 +4.0139984143e+01 4.0139984143e+01 0.0000000000e+00 0.0000e+00 -1.0000e+00
        2 -1    0    0  501    0 +0.0000000000e+00 -0.0000000000e+00 -3.9651897359e+00 3.9651897359e+00 0.0000000000e+00 0.0000e+00 1.0000e+00
      -11  1    1    2    0    0 -4.1945573585e+00 +9.3573356232e+00 +5.2413218573e+00 1.1516314350e+01 0.0000000000e+00 0.0000e+00 1.0000e+00
       11  1    1    2    0    0 +4.1945573585e+00 -9.3573356232e+00 +3.0933472550e+01 3.2588859529e+01 0.0000000000e+00 0.0000e+00 -1.0000e+00
<mgrwt>
<rscale>  0 0.25231936E+02</rscale>
<asrwt>0</asrwt>
<pdfrwt beam="2">  1        2 0.61002922E-03 0.25231936E+02</pdfrwt>
<pdfrwt beam="1">  1       -2 0.61753819E-02 0.25231936E+02</pdfrwt>
<totfact> 0.20827605E+06</totfact>
</mgrwt>
</event>
<event>
 5      1 +1.6944000e+03 8.91792300e+01 7.81860800e-03 1.30485200e-01
       -2 -1    0    0    0  501 -0.0000000000e+00 +0.0000000000e+00 +8.8207455608e+00 8.8207455608e+00 0.0000000000e+00 0.0000e+00 -1.0000e+00
        2 -1    0    0  501    0 +0.0000000000e+00 -0.0000000000e+00 -2.2540425228e+02 2.2540425228e+02 0.0000000000e+00 0.0000e+00 1.0000e+00
       23  2    1    2    0    0 +0.0000000000e+00 +0.0000000000e+00 -2.1658350672e+02 2.3422499784e+02 8.9179225331e+01 0.0000e+00 0.0000e+00
      -11  1    3    3    0    0 +1.6396218846e+01 -3.7028439581e+01 -1.5730815653e+02 1.6243705686e+02 0.0000000000e+00 0.0000e+00 1.0000e+00
       11  1    3    3    0    0 -1.6396218846e+01 +3.7028439581e+01 -5.9275350189e+01 7.1787940981e+01 0.0000000000e+00 0.0000e+00 -1.0000e+00
<mgrwt>
<rscale>  0 0.89179225E+02</rscale>
<asrwt>0</asrwt>
<pdfrwt beam="2">  1        2 0.34677580E-01 0.89179225E+02</pdfrwt>
<pdfrwt beam="1">  1       -2 0.13570377E-02 0.89179225E+02</pdfrwt>
<totfact> 0.17145183E+05</totfact>
</mgrwt>
</event>
<event>
 4      1 +1.6944000e+03 4.83246500e+01 7.81860800e-03 1.45459300e-01
        2 -1    0    0  501    0 +0.0000000000e+00 +0.0000000000e+00 +1.3283889881e+01 1.3283889881e+01 0.0000000000e+00 0.0000e+00 -1.0000e+00
       -2 -1    0    0    0  501 -0.0000000000e+00 -0.0000000000e+00 -4.3949325078e+01 4.3949325078e+01 0.0000000000e+00 0.0000e+00 1.0000e+00
      -13  1    1    2    0    0 -6.0602818936e+00 -2.3128584164e+01 -1.1202826848e+01 2.6403820774e+01 0.0000000000e+00 0.0000e+00 -1.0000e+00
       13  1    1    2    0    0 +6.0602818936e+00 +2.3128584164e+01 -1.9462608349e+01 3.0829394185e+01 0.0000000000e+00 0.0000e+00 1.0000e+00
<mgrwt>
<rscale>  0 0.48324652E+02</rscale>
<asrwt>0</asrwt>
<pdfrwt beam="1">  1        2 0.20436754E-02 0.48324652E+02</pdfrwt>
<pdfrwt beam="2">  1       -2 0.67614345E-02 0.48324652E+02</pdfrwt>
<totfact> 0.45209694E+05</totfact>
</mgrwt>
</event>
<event>
 4      1 +1.6944000e+03 3.16922600e+01 7.81860800e-03 1.58010200e-01
        2 -1    0    0  501    0 +0.0000000000e+00 +0.0000000000e+00 +2.3604486334e+00 2.3604486334e+00 0.0000000000e+00 0.0000e+00 1.0000e+00
       -2 -1    0    0    0  501 -0.0000000000e+00 -0.0000000000e+00 -1.0637802795e+02 1.0637802795e+02 0.0000000000e+00 0.0000e+00 -1.0000e+00
      -11  1    1    2    0    0 +1.2366969204e+01 +9.4864315362e+00 -4.2204345124e+01 4.4990455187e+01 0.0000000000e+00 0.0000e+00 1.0000e+00
       11  1    1    2    0    0 -1.2366969204e+01 -9.4864315362e+00 -6.1813234189e+01 6.3748021393e+01 0.0000000000e+00 0.0000e+00 -1.0000e+00
<mgrwt>
<rscale>  0 0.31692262E+02</rscale>
<asrwt>0</asrwt>
<pdfrwt beam="1">  1        2 0.36314603E-03 0.31692262E+02</pdfrwt>
<pdfrwt beam="2">  1       -2 0.16365847E-01 0.31692262E+02</pdfrwt>
<totfact> 0.10338730E+06</totfact>
</mgrwt>
</event>
<event>
 5      1 +1.6944000e+03 8.46987400e+01 7.81860800e-03 1.31622200e-01
        3 -1    0    0  501    0 +0.0000000000e+00 +0.0000000000e+00 +7.2700247862e+00 7.2700247862e+00 0.0000000000e+00 0.0000e+00 -1.0000e+00
       -3 -1    0    0    0  501 -0.0000000000e+00 -0.0000000000e+00 -2.4669366677e+02 2.4669366677e+02 0.0000000000e+00 0.0000e+00 1.0000e+00
       23  2    1    2    0    0 +0.0000000000e+00 +0.0000000000e+00 -2.3942364198e+02 2.5396369155e+02 8.4698738408e+01 0.0000e+00 0.0000e+00
      -11  1    3    3    0    0 -4.1958972392e+00 -3.9286181000e+01 -7.3995808771e+01 8.3883188345e+01 0.0000000000e+00 0.0000e+00 -1.0000e+00
       11  1    3    3    0    0 +4.1958972392e+00 +3.9286181000e+01 -1.6542783321e+02 1.7008050321e+02 0.0000000000e+00 0.0000e+00 1.0000e+00
<mgrwt>
<rscale>  0 0.84698738E+02</rscale>
<asrwt>0</asrwt>
<pdfrwt beam="1">  1        3 0.11184652E-02 0.84698738E+02</pdfrwt>
<pdfrwt beam="2">  1       -3 0.37952877E-01 0.84698738E+02</pdfrwt>
<totfact> 0.31573445E+04</totfact>
</mgrwt>
</event>
<event>
 5      1 +1.6944000e+03 9.02889600e+01 7.81860800e-03 1.30215300e-01
       -2 -1    0    0    0  501 -0.0000000000e+00 +0.0000000000e+00 +1.8885713055e+01 1.8885713055e+01 0.0000000000e+00 0.0000e+00 1.0000e+00
        2 -1    0    0  501    0 +0.0000000000e+00 -0.0000000000e+00 -1.0791354241e+02 1.0791354241e+02 0.0000000000e+00 0.0000e+00 -1.0000e+00
       23  2    1    2    0    0 +0.0000000000e+00 +0.0000000000e+00 -8.9027829357e+01 1.2679925547e+02 9.0288962710e+01 0.0000e+00 0.0000e+00
      -11  1    3    3    0    0 +3.0292165450e+01 +3.2390222634e+01 -3.2656960093e+01 5.5074666159e+01 0.0000000000e+00 0.0000e+00 -1.0000e+00
       11  1    3    3    0    0 -3.0292165450e+01 -3.2390222634e+01 -5.6370869265e+01 7.1724589310e+01 0.0000000000e+00 0.0000e+00 1.0000e+00
<mgrwt>
<rscale>  0 0.90288963E+02</rscale>
<asrwt>0</asrwt>
<pdfrwt beam="2">  1        2 0.16602084E-01 0.90288963E+02</pdfrwt>
<pdfrwt beam="1">  1       -2 0.29054943E-02 0.90288963E+02</pdfrwt>
<totfact> 0.12900007E+05</totfact>
</mgrwt>
</event>
<event>
 4      1 +1.6944000e+03 2.60806000e+01 7.81860800e-03 1.64594900e-01
       -2 -1    0    0    0  501 -0.0000000000e+00 +0.0000000000e+00 +1.5666775081e+00 1.5666775081e+00 0.0000000000e+00 0.0000e+00 1.0000e+00
        2 -1    0    0  501    0 +0.0000000000e+00 -0.0000000000e+00 -1.0854143342e+02 1.0854143342e+02 0.0000000000e+00 0.0000e+00 -1.0000e+00
      -13  1    1    2    0    0 +7.6806892813e+00 +1.0156185961e+01 -6.5359924712e+01 6.6588744240e+01 0.0000000000e+00 0.0000e+00 1.0000e+00
       13  1    1    2    0    0 -7.6806892813e+00 -1.0156185961e+01 -4.1614831196e+01 4.3519366685e+01 0.0000000000e+00 0.0000e+00 -1.0000e+00
<mgrwt>
<rscale>  0 0.26080600E+02</rscale>
<asrwt>0</asrwt>
<pdfrwt beam="2">  1        2 0.16698677E-01 0.26080600E+02</pdfrwt>
<pdfrwt beam="1">  1       -2 0.24102738E-03 0.26080600E+02</pdfrwt>
<totfact> 0.29546368E+06</totfact>
</mgrwt>
</event>
<event>
 5      1 +1.6944000e+03 9.01989900e+01 7.81860800e-03 1.30237100e-01
       -1 -1    0    0    0  501 -0.0000000000e+00 +0.0000000000e+00 +1.9176977378e+01 1.9176977378e+01 0.0000000000e+00 0.0000e+00 1.0000e+00
        1 -1    0    0  501    0 +0.0000000000e+00 -0.0000000000e+00 -1.0606281794e+02 1.0606281794e+02 0.0000000000e+00 0.0000e+00 -1.0000e+00
       23  2    1    2    0    0 +0.0000000000e+00 +0.0000000000e+00 -8.6885840566e+01 1.2523979532e+02 9.0198985811e+01 0.0000e+00 0.0000e+00
      -13  1    3    3    0    0 -3.7593323246e+01 +2.0087690049e+01 -2.2980282188e+01 4.8423822791e+01 0.0000000000e+00 0.0000e+00 1.0000e+00
       13  1    3    3    0    0 +3.7593323246e+01 -2.0087690049e+01 -6.3905558379e+01 7.6815972531e+01 0.0000000000e+00 0.0000e+00 -1.0000e+00
<mgrwt>
<rscale>  0 0.90198986E+02</rscale>
<asrwt>0</asrwt>
<pdfrwt beam="2">  1        1 0.16317357E-01 0.90198986E+02</pdfrwt>
<pdfrwt beam="1">  1       -1 0.29503042E-02 0.90198986E+02</pdfrwt>
<totfact> 0.10862347E+05</totfact>
</mgrwt>
</event>
<event>
 4      1 +1.6944000e+03 4.03771400e+01 7.81860800e-03 1.50545400e-01
       -1 -1    0    0    0  501 -0.0000000000e+00 +0.0000000000e+00 +4.0509600534e+01 4.0509600534e+01 0.0000000000e+00 0.0000e+00 -1.0000e+00
        1 -1    0    0  501    0 +0.0000000000e+00 -0.0000000000e+00 -1.0061279599e+01 1.0061279599e+01 0.0000000000e+00 0.0000e+00 1.0000e+00
      -13  1    1    2    0    0 -3.6454883486e+00 +1.8797642538e+01 +7.2106019695e+00 2.0460540830e+01 0.0000000000e+00 0.0000e+00 1.0000e+00
       13  1    1    2    0    0 +3.6454883486e+00 -1.8797642538e+01 +2.3237718965e+01 3.0110339304e+01 0.0000000000e+00 0.0000e+00 -1.0000e+00
<mgrwt>
<rscale>  0 0.40377143E+02</rscale>
<asrwt>0</asrwt>
<pdfrwt beam="2">  1        1 0.15478892E-02 0.40377143E+02</pdfrwt>
<pdfrwt beam="1">  1       -1 0.62322461E-02 0.40377143E+02</pdfrwt>
<totfact> 0.70230433E+05</totfact>
</mgrwt>
</event>
<event>
 5      1 +1.6944000e+03 9.18333800e+01 7.81860800e-03 1.29847200e-01
        1 -1    0    0  501    0 +0.0000000000e+00 +0.0000000000e+00 +4.6753979241e+01 4.6753979241e+01 0.0000000000e+00 0.0000e+00 -1.0000e+00
       -1 -1    0    0    0  501 -0.0000000000e+00 -0.0000000000e+00 -4.5094396292e+01 4.5094396292e+01 0.0000000000e+00 0.0000e+00 1.0000e+00
       23  2    1    2    0    0 +0.0000000000e+00 +0.0000000000e+00 +1.6595829490e+00 9.1848375533e+01 9.1833381035e+01 0.0000e+00 0.0000e+00
      -11  1    3    3    0    0 -1.8848200246e+01 -2.5034940317e+01 -3.2736671327e+01 4.5317684614e+01 0.0000000000e+00 0.0000e+00 1.0000e+00
       11  1    3    3    0    0 +1.8848200246e+01 +2.5034940317e+01 +3.4396254276e+01 4.6530690919e+01 0.0000000000e+00 0.0000e+00 -1.0000e+00
<mgrwt>
<rscale>  0 0.91833381E+02</rscale>
<asrwt>0</asrwt>
<pdfrwt beam="1">  1        1 0.71929199E-02 0.91833381E+02</pdfrwt>
<pdfrwt beam="2">  1       -1 0.69375995E-02 0.91833381E+02</pdfrwt>
<totfact> 0.90972311E+04</totfact>
</mgrwt>
</event>
<event>
 4      1 +1.6944000e+03 3.33311800e+01 7.81860800e-03 1.56394000e-01
        2 -1    0    0  501    0 +0.0000000000e+00 +0.0000000000e+00 +6.2065516827e+01 6.2065516827e+01 0.0000000000e+00 0.0000e+00 1.0000e+00
       -2 -1    0    0    0  501 -0.0000000000e+00 -0.0000000000e+00 -4.4749785046e+00 4.4749785046e+00 0.0000000000e+00 0.0000e+00 -1.0000e+00
      -13  1    1    2    0    0 -1.4544103385e+00 +1.3308534293e+01 +8.9811698038e+00 1.6121222209e+01 0.0000000000e+00 0.0000e+00 -1.0000e+00
       13  1    1    2    0    0 +1.4544103385e+00 -1.3308534293e+01 +4.8609368518e+01 5.0419273123e+01 0.0000000000e+00 0.0000e+00 1.0000e+00
<mgrwt>
<rscale>  0 0.33331178E+02</rscale>
<asrwt>0</asrwt>
<pdfrwt beam="1">  1        2 0.95485405E-02 0.33331178E+02</pdfrwt>
<pdfrwt beam="2">  1       -2 0.68845827E-03 0.33331178E+02</pdfrwt>
<totfact> 0.14673253E+06</totfact>
</mgrwt>
</event>
<event>
 5      1 +1.6944000e+03 9.11038700e+01 7.81860800e-03 1.30020000e-01
        1 -1    0    0  501    0 +0.0000000000e+00 +0.0000000000e+00 +2.5568022003e+02 2.5568022003e+02 0.0000000000e+00 0.0000e+00 -1.0000e+00
       -1 -1    0    0    0  501 -0.0000000000e+00 -0.0000000000e+00 -8.1155228346e+00 8.1155228346e+00 0.0000000000e+00 0.0000e+00 1.0000e+00
       23  2    1    2    0    0 +0.0000000000e+00 +0.0000000000e+00 +2.4756469719e+02 2.6379574286e+02 9.1103867404e+01 0.0000e+00 0.0000e+00
      -13  1    3    3    0    0 -3.1176390052e+01 +1.6832371792e+01 +2.0668221573e+02 2.0969700602e+02 0.0000000000e+00 0.0000e+00 -1.0000e+00
       13  1    3    3    0    0 +3.1176390052e+01 -1.6832371792e+01 +4.0882481463e+01 5.4098736837e+01 0.0000000000e+00 0.0000e+00 1.0000e+00
<mgrwt>
<rscale>  0 0.91103867E+02</rscale>
<asrwt>0</asrwt>
<pdfrwt beam="1">  1        1 0.39335412E-01 0.91103867E+02</pdfrwt>
<pdfrwt beam="2">  1       -1 0.12485422E-02 0.91103867E+02</pdfrwt>
<totfact> 0.12447784E+05</totfact>
</mgrwt>
</event>
<event>
 5      1 +1.6944000e+03 9.15628300e+01 7.81860800e-03 1.29911100e-01
        1 -1    0    0  501    0 +0.0000000000e+00 +0.0000000000e+00 +1.3264991992e+02 1.3264991992e+02 0.0000000000e+00 0.0000e+00 -1.0000e+00
       -1 -1    0    0    0  501 -0.0000000000e+00 -0.0000000000e+00 -1.5800522520e+01 1.5800522520e+01 0.0000000000e+00 0.0000e+00 1.0000e+00
       23  2    1    2    0    0 +0.0000000000e+00 +0.0000000000e+00 +1.1684939740e+02 1.4845044244e+02 9.1562831914e+01 0.0000e+00 0.0000e+00
      -11  1    3    3    0    0 -2.4544819766e+01 -1.8931992439e+01 +3.8019547305e+00 3.1230167704e+01 0.0000000000e+00 0.0000e+00 1.0000e+00
       11  1    3    3    0    0 +2.4544819766e+01 +1.8931992439e+01 +1.1304744267e+02 1.1722027474e+02 0.0000000000e+00 0.0000e+00 -1.0000e+00
<mgrwt>
<rscale>  0 0.91562832E+02</rscale>
<asrwt>0</asrwt>
<pdfrwt beam="1">  1        1 0.20407679E-01 0.91562832E+02</pdfrwt>
<pdfrwt beam="2">  1       -1 0.24308497E-02 0.91562832E+02</pdfrwt>
<totfact> 0.10841336E+05</totfact>
</mgrwt>
</event>
<event>
 5      1 +1.6944000e+03 8.94471200e+01 7.81860800e-03 1.30419600e-01
        1 -1    0    0  501    0 +0.0000000000e+00 +0.0000000000e+00 +1.6579585651e+02 1.6579585651e+02 0.0000000000e+00 0.0000e+00 -1.0000e+00
       -1 -1    0    0    0  501 -0.0000000000e+00 -0.0000000000e+00 -1.2064214548e+01 1.2064214548e+01 0.0000000000e+00 0.0000e+00 1.0000e+00
       23  2    1    2    0    0 +0.0000000000e+00 +0.0000000000e+00 +1.5373164196e+02 1.7786007106e+02 8.9447119218e+01 0.0000e+00 0.0000e+00
      -13  1    3    3    0    0 +3.2765447300e+01 -2.8993791292e+01 +9.5303942270e+01 1.0486684835e+02 0.0000000000e+00 0.0000e+00 -1.0000e+00
       13  1    3    3    0    0 -3.2765447300e+01 +2.8993791292e+01 +5.8427699693e+01 7.2993222710e+01 0.0000000000e+00 0.0000e+00 1.0000e+00
<mgrwt>
<rscale>  0 0.89447119E+02</rscale>
<asrwt>0</asrwt>
<pdfrwt beam="1">  1        1 0.25507053E-01 0.89447119E+02</pdfrwt>
<pdfrwt beam="2">  1       -1 0.18560331E-02 0.89447119E+02</pdfrwt>
<totfact> 0.12026953E+05</totfact>
</mgrwt>
</event>
<event>
 4      1 +1.6944000e+03 3.25126000e+01 7.81860800e-03 1.57186800e-01
       -2 -1    0    0    0  501 -0.0000000000e+00 +0.0000000000e+00 +2.8441109033e+01 2.8441109033e+01 0.0000000000e+00 0.0000e+00 1.0000e+00
        2 -1    0    0  501    0 +0.0000000000e+00 -0.0000000000e+00 -9.2917360809e+00 9.2917360809e+00 0.0000000000e+00 0.0000e+00 -1.0000e+00
      -13  1    1    2    0    0 -1.5836604711e+01 -2.1194940081e+00 +6.0974608049e+00 1.7101734763e+01 0.0000000000e+00 0.0000e+00 -1.0000e+00
       13  1    1    2    0    0 +1.5836604711e+01 +2.1194940081e+00 +1.3051912147e+01 2.0631110351e+01 0.0000000000e+00 0.0000e+00 1.0000e+00
<mgrwt>
<rscale>  0 0.32512599E+02</rscale>
<asrwt>0</asrwt>
<pdfrwt beam="2">  1        2 0.14294979E-02 0.32512599E+02</pdfrwt>
<pdfrwt beam="1">  1       -2 0.43755552E-02 0.32512599E+02</pdfrwt>
<totfact> 0.12170354E+06</totfact>
</mgrwt>
</event>
<event>
 4      1 +1.6944000e+03 3.70150300e+01 7.81860800e-03 1.53140200e-01
        2 -1    0    0  501    0 +0.0000000000e+00 +0.0000000000e+00 +7.0486656546e+01 7.0486656546e+01 0.0000000000e+00 0.0000e+00 1.0000e+00
       -2 -1    0    0    0  501 -0.0000000000e+00 -0.0000000000e+00 -4.8594742847e+00 4.8594742847e+00 0.0000000000e+00 0.0000e+00 -1.0000e+00
      -11  1    1    2    0    0 -8.0226058139e+00 -8.2747526550e+00 +6.2290112825e+01 6.3347390564e+01 0.0000000000e+00 0.0000e+00 1.0000e+00
       11  1    1    2    0    0 +8.0226058139e+00 +8.2747526550e+00 +3.3370694358e+00 1.1998740266e+01 0.0000000000e+00 0.0000e+00 -1.0000e+00
<mgrwt>
<rscale>  0 0.37015029E+02</rscale>
<asrwt>0</asrwt>
<pdfrwt beam="1">  1        2 0.10844100E-01 0.37015029E+02</pdfrwt>
<pdfrwt beam="2">  1       -2 0.74761148E-03 0.37015029E+02</pdfrwt>
<totfact> 0.11665466E+06</totfact>
</mgrwt>
</event>
<event>
 5      1 +1.6944000e+03 8.31268600e+01 7.81860800e-03 1.32040500e-01
       -3 -1    0    0    0  501 -0.0000000000e+00 +0.0000000000e+00 +2.6337584783e+01 2.6337584783e+01 0.0000000000e+00 0.0000e+00 1.0000e+00
        3 -1    0    0  501    0 +0.0000000000e+00 -0.0000000000e+00 -6.5591388014e+01 6.5591388014e+01 0.0000000000e+00 0.0000e+00 -1.0000e+00
       23  2    1    2    0    0 +0.0000000000e+00 +0.0000000000e+00 -3.9253803231e+01 9.1928972797e+01 8.3126860709e+01 0.0000e+00 0.0000e+00
      -13  1    3    3    0    0 +2.3460045522e+01 +2.4454051085e+01 -4.6240552501e+01 5.7328553497e+01 0.0000000000e+00 0.0000e+00 -1.0000e+00
       13  1    3    3    0    0 -2.3460045522e+01 -2.4454051085e+01 +6.9867492701e+00 3.4600419300e+01 0.0000000000e+00 0.0000e+00 1.0000e+00
<mgrwt>
<rscale>  0 0.83126861E+02</rscale>
<asrwt>0</asrwt>
<pdfrwt beam="2">  1        3 0.10090983E-01 0.83126861E+02</pdfrwt>
<pdfrwt beam="1">  1       -3 0.40519362E-02 0.83126861E+02</pdfrwt>
<totfact> 0.45305594E+04</totfact>
</mgrwt>
</event>
<event>
 4      1 +1.6944000e+03 6.11386000e+01 7.81860800e-03 1.39311500e-01
       -2 -1    0    0    0  501 -0.0000000000e+00 +0.0000000000e+00 +1.9950258241e+01 1.9950258241e+01 0.0000000000e+00 0.0000e+00 -1.0000e+00
        2 -1    0    0  501    0 +0.0000000000e+00 -0.0000000000e+00 -4.6840600363e+01 4.6840600363e+01 0.0000000000e+00 0.0000e+00 1.0000e+00
      -13  1    1    2    0    0 -1.3748249076e+01 +1.6993630281e+01 +9.9006719501e+00 2.3996273208e+01 0.0000000000e+00 0.0000e+00 -1.0000e+00
       13  1    1    2    0    0 +1.3748249076e+01 -1.6993630281e+01 -3.6791014072e+01 4.2794585397e+01 0.0000000000e+00 0.0000e+00 1.0000e+00
<mgrwt>
<rscale>  0 0.61138599E+02</rscale>
<asrwt>0</asrwt>
<pdfrwt beam="2">  1        2 0.72062461E-02 0.61138599E+02</pdfrwt>
<pdfrwt beam="1">  1       -2 0.30692705E-02 0.61138599E+02</pdfrwt>
<totfact> 0.29921757E+05</totfact>
</mgrwt>
</event>
<event>
 5      1 +1.6944000e+03 9.17863600e+01 7.81860800e-03 1.29858300e-01
        1 -1    0    0  501    0 +0.0000000000e+00 +0.0000000000e+00 +4.9099902718e+01 4.9099902718e+01 0.0000000000e+00 0.0000e+00 -1.0000e+00
       -1 -1    0    0    0  501 -0.0000000000e+00 -0.0000000000e+00 -4.2895886319e+01 4.2895886319e+01 0.0000000000e+00 0.0000e+00 1.0000e+00
       23  2    1    2    0    0 +0.0000000000e+00 +0.0000000000e+00 +6.2040163986e+00 9.1995789037e+01 9.1786357271e+01 0.0000e+00 0.0000e+00
      -11  1    3    3    0    0 -1.3972173657e+01 -3.6300651160e+01 +2.7513791865e+01 4.7644177547e+01 0.0000000000e+00 0.0000e+00 -1.0000e+00
       11  1    3    3    0    0 +1.3972173657e+01 +3.6300651160e+01 -2.1309775466e+01 4.4351611490e+01 0.0000000000e+00 0.0000e+00 1.0000e+00
<mgrwt>
<rscale>  0 0.91786357E+02</rscale>
<asrwt>0</asrwt>
<pdfrwt beam="1">  1        1 0.75538312E-02 0.91786357E+02</pdfrwt>
<pdfrwt beam="2">  1       -1 0.65993671E-02 0.91786357E+02</pdfrwt>
<totfact> 0.91779228E+04</totfact>
</mgrwt>
</event>
<event>
 4      1 +1.6944000e+03 2.56907200e+01 7.81860800e-03 1.65127500e-01
        4 -1    0    0  501    0 +0.0000000000e+00 +0.0000000000e+00 +5.3771385630e+00 5.3771385630e+00 0.0000000000e+00 0.0000e+00 1.0000e+00
       -4 -1    0    0    0  501 -0.0000000000e+00 -0.0000000000e+00 -3.0686072267e+01 3.0686072267e+01 0.0000000000e+00 0.0000e+00 -1.0000e+00
      -11  1    1    2    0    0 -1.2269775559e+01 +3.1479379555e+00 -1.5647557653e+01 2.0132137644e+01 0.0000000000e+00 0.0000e+00 -1.0000e+00
       11  1    1    2    0    0 +1.2269775559e+01 -3.1479379555e+00 -9.6613760515e+00 1.5931073186e+01 0.0000000000e+00 0.0000e+00 1.0000e+00
<mgrwt>
<rscale>  0 0.25690719E+02</rscale>
<asrwt>0</asrwt>
<pdfrwt beam="1">  1        4 0.82725211E-03 0.25690719E+02</pdfrwt>
<pdfrwt beam="2">  1       -4 0.47209341E-02 0.25690719E+02</pdfrwt>
<totfact> 0.71709312E+05</totfact>
</mgrwt>
</event>
<event>
 5      1 +1.6944000e+03 9.11699100e+01 7.81860800e-03 1.30004300e-01
       -1 -1    0    0    0  501 -0.0000000000e+00 +0.0000000000e+00 +2.1970983499e+02 2.1970983499e+02 0.0000000000e+00 0.0000e+00 1.0000e+00
        1 -1    0    0  501    0 +0.0000000000e+00 -0.0000000000e+00 -9.4578755473e+00 9.4578755473e+00 0.0000000000e+00 0.0000e+00 -1.0000e+00
       23  2    1    2    0    0 +0.0000000000e+00 +0.0000000000e+00 +2.1025195945e+02 2.2916771054e+02 9.1169913368e+01 0.0000e+00 0.0000e+00
      -13  1    3    3    0    0 +2.9053131522e+01 +1.1638769605e+01 +2.1817229305e+01 3.8151499364e+01 0.0000000000e+00 0.0000e+00 -1.0000e+00
       13  1    3    3    0    0 -2.9053131522e+01 -1.1638769605e+01 +1.8843473014e+02 1.9101621118e+02 0.0000000000e+00 0.0000e+00 1.0000e+00
<mgrwt>
<rscale>  0 0.91169913E+02</rscale>
<asrwt>0</asrwt>
<pdfrwt beam="2">  1        1 0.14550579E-02 0.91169913E+02</pdfrwt>
<pdfrwt beam="1">  1       -1 0.33801509E-01 0.91169913E+02</pdfrwt>
<totfact> 0.67531937E+04</totfact>
</mgrwt>
</event>
<event>
 5      1 +1.6944000e+03 9.35785600e+01 7.81860800e-03 1.29441000e-01
       -2 -1    0    0    0  501 -0.0000000000e+00 +0.0000000000e+00 +1.1185634975e+01 1.1185634975e+01 0.0000000000e+00 0.0000e+00 1.0000e+00
        2 -1    0    0  501    0 +0.0000000000e+00 -0.0000000000e+00 -1.9571858531e+02 1.9571858531e+02 0.0000000000e+00 0.0000e+00 -1.0000e+00
       23  2    1    2    0    0 +0.0000000000e+00 +0.0000000000e+00 -1.8453295033e+02 2.0690422028e+02 9.3578558507e+01 0.0000e+00 0.0000e+00
      -13  1    3    3    0    0 -1.9340657583e+01 +2.7910299445e+01 -1.6343908063e+02 1.6692926325e+02 0.0000000000e+00 0.0000e+00 -1.0000e+00
       13  1    3    3    0    0 +1.9340657583e+01 -2.7910299445e+01 -2.1093869699e+01 3.9974957033e+01 0.0000000000e+00 0.0000e+00 1.0000e+00
<mgrwt>
<rscale>  0 0.93578559E+02</rscale>
<asrwt>0</asrwt>
<pdfrwt beam="2">  1        2 0.30110550E-01 0.93578559E+02</pdfrwt>
<pdfrwt beam="1">  1       -2 0.17208670E-02 0.93578559E+02</pdfrwt>
<totfact> 0.14307109E+05</totfact>
</mgrwt>
</event>
<event>
 5      1 +1.6944000e+03 9.23032900e+01 7.81860800e-03 1.29736800e-01
       -1 -1    0    0    0  501 -0.0000000000e+00 +0.0000000000e+00 +3.3820991557e+01 3.3820991557e+01 0.0000000000e+00 0.0000e+00 1.0000e+00
        1 -1    0    0  501    0 +0.0000000000e+00 -0.0000000000e+00 -6.2977880402e+01 6.2977880402e+01 0.0000000000e+00 0.0000e+00 -1.0000e+00
       23  2    1    2    0    0 +0.0000000000e+00 +0.0000000000e+00 -2.9156888845e+01 9.6798871959e+01 9.2303290545e+01 0.0000e+00 0.0000e+00
      -11  1    3    3    0    0 +2.7259836676e+01 +1.6704412252e+01 +2.0326849225e+01 3.7885576196e+01 0.0000000000e+00 0.0000e+00 1.0000e+00
       11  1    3    3    0    0 -2.7259836676e+01 -1.6704412252e+01 -4.9483738069e+01 5.8913295763e+01 0.0000000000e+00 0.0000e+00 -1.0000e+00
<mgrwt>
<rscale>  0 0.92303291E+02</rscale>
<asrwt>0</asrwt>
<pdfrwt beam="2">  1        1 0.96889047E-02 0.92303291E+02</pdfrwt>
<pdfrwt beam="1">  1       -1 0.52032295E-02 0.92303291E+02</pdfrwt>
<totfact> 0.93831230E+04</totfact>
</mgrwt>
</event>
<event>
 5      1 +1.6944000e+03 9.47398800e+01 7.81860800e-03 1.29176300e-01
       -2 -1    0    0    0  501 -0.0000000000e+00 +0.0000000000e+00 +1.4091186291e+02 1.4091186291e+02 0.0000000000e+00 0.0000e+00 1.0000e+00
        2 -1    0    0  501    0 +0.0000000000e+00 -0.0000000000e+00 -1.5924217817e+01 1.5924217817e+01 0.0000000000e+00 0.0000e+00 -1.0000e+00
       23  2    1    2    0    0 +0.0000000000e+00 +0.0000000000e+00 +1.2498764510e+02 1.5683608073e+02 9.4739879628e+01 0.0000e+00 0.0000e+00
      -13  1    3    3    0    0 +1.1233276466e+01 -1.9626793478e+01 -6.4112966000e+00 2.3505366334e+01 0.0000000000e+00 0.0000e+00 -1.0000e+00
       13  1    3    3    0    0 -1.1233276466e+01 +1.9626793478e+01 +1.3139894170e+02 1.3333071440e+02 0.0000000000e+00 0.0000e+00 1.0000e+00
<mgrwt>
<rscale>  0 0.94739880E+02</rscale>
<asrwt>0</asrwt>
<pdfrwt beam="2">  1        2 0.24498798E-02 0.94739880E+02</pdfrwt>
<pdfrwt beam="1">  1       -2 0.21678747E-01 0.94739880E+02</pdfrwt>
<totfact> 0.64837997E+04</totfact>
</mgrwt>
</event>
<event>
 5      1 +1.6944000e+03 7.99661300e+01 7.81860800e-03 1.32914800e-01
        3 -1    0    0  501    0 +0.0000000000e+00 +0.0000000000e+00 +1.0485396085e+02 1.0485396085e+02 0.0000000000e+00 0.0000e+00 -1.0000e+00
       -3 -1    0    0    0  501 -0.0000000000e+00 -0.0000000000e+00 -1.5246401788e+01 1.5246401788e+01 0.0000000000e+00 0.0000e+00 1.0000e+00
       23  2    1    2    0    0 +0.0000000000e+00 +0.0000000000e+00 +8.9607559065e+01 1.2010036264e+02 7.9966133239e+01 0.0000e+00 0.0000e+00
      -13  1    3    3    0    0 +1.2586215357e+01 +1.6684390202e+01 +9.5997401347e+01 9.8246031771e+01 0.0000000000e+00 0.0000e+00 -1.0000e+00
       13  1    3    3    0    0 -1.2586215357e+01 -1.6684390202e+01 -6.3898422819e+00 2.1854330871e+01 0.0000000000e+00 0.0000e+00 1.0000e+00
<mgrwt>
<rscale>  0 0.79966133E+02</rscale>
<asrwt>0</asrwt>
<pdfrwt beam="1">  1        3 0.16131378E-01 0.79966133E+02</pdfrwt>
<pdfrwt beam="2">  1       -3 0.23456003E-02 0.79966133E+02</pdfrwt>
<totfact> 0.47316651E+04</totfact>
</mgrwt>
</event>
<event>
 5      1 +1.6944000e+03 9.04404900e+01 7.81860800e-03 1.30178800e-01
       -1 -1    0    0    0  501 -0.0000000000e+00 +0.0000000000e+00 +1.0446563482e+02 1.0446563482e+02 0.0000000000e+00 0.0000e+00 1.0000e+00
        1 -1    0    0  501    0 +0.0000000000e+00 -0.0000000000e+00 -1.9574574801e+01 1.9574574801e+01 0.0000000000e+00 0.0000e+00 -1.0000e+00
       23  2    1    2    0    0 +0.0000000000e+00 +0.0000000000e+00 +8.4891060019e+01 1.2404020962e+02 9.0440486131e+01 0.0000e+00 0.0000e+00
      -11  1    3    3    0    0 -9.2535827546e-02 -2.7047063059e+01 -7.2576968087e+00 2.8004041601e+01 0.0000000000e+00 0.0000e+00 -1.0000e+00
       11  1    3    3    0    0 +9.2535827546e-02 +2.7047063059e+01 +9.2148756828e+01 9.6036168020e+01 0.0000000000e+00 0.0000e+00 1.0000e+00
<mgrwt>
<rscale>  0 0.90440486E+02</rscale>
<asrwt>0</asrwt>
<pdfrwt beam="2">  1        1 0.30114731E-02 0.90440486E+02</pdfrwt>
<pdfrwt beam="1">  1       -1 0.16071636E-01 0.90440486E+02</pdfrwt>
<totfact> 0.82408604E+04</totfact>
</mgrwt>
</event>
<event>
 5      1 +1.6944000e+03 9.63857400e+01 7.81860800e-03 1.28808500e-01
       -1 -1    0    0    0  501 -0.0000000000e+00 +0.0000000000e+00 +5.6432342014e+00 5.6432342014e+00 0.0000000000e+00 0.0000e+00 1.0000e+00
        1 -1    0    0  501    0 +0.0000000000e+00 -0.0000000000e+00 -4.1156415692e+02 4.1156415692e+02 0.0000000000e+00 0.0000e+00 -1.0000e+00
       23  2    1    2    0    0 +0.0000000000e+00 +0.0000000000e+00 -4.0592092272e+02 4.1720739112e+02 9.6385744307e+01 0.0000e+00 0.0000e+00
      -13  1    3    3    0    0 +4.2968744556e+01 +2.1796736499e+01 -2.0758650193e+02 2.1310459055e+02 0.0000000000e+00 0.0000e+00 1.0000e+00
       13  1    3    3    0    0 -4.2968744556e+01 -2.1796736499e+01 -1.9833442079e+02 2.0410280057e+02 0.0000000000e+00 0.0000e+00 -1.0000e+00
<mgrwt>
<rscale>  0 0.96385744E+02</rscale>
<asrwt>0</asrwt>
<pdfrwt beam="2">  1        1 0.63317570E-01 0.96385744E+02</pdfrwt>
<pdfrwt beam="1">  1       -1 0.86818978E-03 0.96385744E+02</pdfrwt>
<totfact> 0.11687755E+05</totfact>
</mgrwt>
</event>
<event>
 4      1 +1.6944000e+03 2.23997900e+01 7.81860800e-03 1.70142800e-01
        2 -1    0    0  501    0 +0.0000000000e+00 +0.0000000000e+00 +7.1776450509e+00 7.1776450509e+00 0.0000000000e+00 0.0000e+00 1.0000e+00
       -2 -1    0    0    0  501 -0.0000000000e+00 -0.0000000000e+00 -1.7476150638e+01 1.7476150638e+01 0.0000000000e+00 0.0000e+00 -1.0000e+00
      -13  1    1    2    0    0 -5.1079325770e+00 +9.5004552545e+00 -1.8312738875e+00 1.0940895270e+01 0.0000000000e+00 0.0000e+00 1.0000e+00
       13  1    1    2    0    0 +5.1079325770e+00 -9.5004552545e+00 -8.4672317000e+00 1.3712900419e+01 0.0000000000e+00 0.0000e+00 -1.0000e+00
<mgrwt>
<rscale>  0 0.22399786E+02</rscale>
<asrwt>0</asrwt>
<pdfrwt beam="1">  1        2 0.11042531E-02 0.22399786E+02</pdfrwt>
<pdfrwt beam="2">  1       -2 0.26886385E-02 0.22399786E+02</pdfrwt>
<totfact> 0.29550553E+06</totfact>
</mgrwt>
</event>
<event>
 5      1 +1.6944000e+03 9.29840200e+01 7.81860800e-03 1.29578200e-01
       -1 -1    0    0    0  501 -0.0000000000e+00 +0.0000000000e+00 +2.4648837764e+01 2.4648837764e+01 0.0000000000e+00 0.0000e+00 1.0000e+00
        1 -1    0    0  501    0 +0.0000000000e+00 -0.0000000000e+00 -8.7692047852e+01 8.7692047852e+01 0.0000000000e+00 0.0000e+00 -1.0000e+00
       23  2    1    2    0    0 +0.0000000000e+00 +0.0000000000e+00 -6.3043210088e+01 1.1234088562e+02 9.2984021438e+01 0.0000e+00 0.0000e+00
      -13  1    3    3    0    0 -3.6837727440e+01 +2.2201948938e+01 -5.2847241995e+01 6.8137916655e+01 0.0000000000e+00 0.0000e+00 -1.0000e+00
       13  1    3    3    0    0 +3.6837727440e+01 -2.2201948938e+01 -1.0195968093e+01 4.4202968961e+01 0.0000000000e+00 0.0000e+00 1.0000e+00
<mgrwt>
<rscale>  0 0.92984021E+02</rscale>
<asrwt>0</asrwt>
<pdfrwt beam="2">  1        1 0.13491084E-01 0.92984021E+02</pdfrwt>
<pdfrwt beam="1">  1       -1 0.37921290E-02 0.92984021E+02</pdfrwt>
<totfact> 0.96872146E+04</totfact>
</mgrwt>
</event>
<event>
 4      1 +1.6944000e+03 2.20589400e+01 7.81860800e-03 1.70723500e-01
        2 -1    0    0  501    0 +0.0000000000e+00 +0.0000000000e+00 +3.9586409326e+00 3.9586409326e+00 0.0000000000e+00 0.0000e+00 1.0000e+00
       -2 -1    0    0    0  501 -0.0000000000e+00 -0.0000000000e+00 -3.0730038399e+01 3.0730038399e+01 0.0000000000e+00 0.0000e+00 -1.0000e+00
      -13  1    1    2    0    0 -5.3992714083e+00 +9.3680153816e+00 -9.9629846559e+00 1.4702819702e+01 0.0000000000e+00 0.0000e+00 1.0000e+00
       13  1    1    2    0    0 +5.3992714083e+00 -9.3680153816e+00 -1.6808412811e+01 1.9985859630e+01 0.0000000000e+00 0.0000e+00 -1.0000e+00
<mgrwt>
<rscale>  0 0.22058938E+02</rscale>
<asrwt>0</asrwt>
<pdfrwt beam="1">  1        2 0.60902169E-03 0.22058938E+02</pdfrwt>
<pdfrwt beam="2">  1       -2 0.47276982E-02 0.22058938E+02</pdfrwt>
<totfact> 0.29004057E+06</totfact>
</mgrwt>
</event>
<event>
 4      1 +1.6944000e+03 2.26288100e+01 7.81860800e-03 1.69759900e-01
        2 -1    0    0  501    0 +0.0000000000e+00 +0.0000000000e+00 +4.3705911226e+00 4.3705911226e+00 0.0000000000e+00 0.0000e+00 1.0000e+00
       -2 -1    0    0    0  501 -0.0000000000e+00 -0.0000000000e+00 -2.9290271720e+01 2.9290271720e+01 0.0000000000e+00 0.0000e+00 -1.0000e+00
      -11  1    1    2    0    0 +6.0396825105e+00 -9.0480695583e+00 -7.8340351044e+00 1.3405873100e+01 0.0000000000e+00 0.0000e+00 1.0000e+00
       11  1    1    2    0    0 -6.0396825105e+00 +9.0480695583e+00 -1.7085645493e+01 2.0254989743e+01 0.0000000000e+00 0.0000e+00 -1.0000e+00
<mgrwt>
<rscale>  0 0.22628814E+02</rscale>
<asrwt>0</asrwt>
<pdfrwt beam="1">  1        2 0.67239866E-03 0.22628814E+02</pdfrwt>
<pdfrwt beam="2">  1       -2 0.45061955E-02 0.22628814E+02</pdfrwt>
<totfact> 0.27548708E+06</totfact>
</mgrwt>
</event>
<event>
 4      1 +1.6944000e+03 2.08677300e+01 7.81860800e-03 1.72860300e-01
        2 -1    0    0  501    0 +0.0000000000e+00 +0.0000000000e+00 +1.1932004872e+00 1.1932004872e+00 0.0000000000e+00 0.0000e+00 -1.0000e+00
       -2 -1    0    0    0  501 -0.0000000000e+00 -0.0000000000e+00 -9.1238300313e+01 9.1238300313e+01 0.0000000000e+00 0.0000e+00 1.0000e+00
      -11  1    1    2    0    0 +4.5713352932e+00 +9.2290779279e+00 -3.7620551891e+01 3.9004857522e+01 0.0000000000e+00 0.0000e+00 -1.0000e+00
       11  1    1    2    0    0 -4.5713352932e+00 -9.2290779279e+00 -5.2424547935e+01 5.3426643278e+01 0.0000000000e+00 0.0000e+00 1.0000e+00
<mgrwt>
<rscale>  0 0.20867734E+02</rscale>
<asrwt>0</asrwt>
<pdfrwt beam="1">  1        2 0.18356926E-03 0.20867734E+02</pdfrwt>
<pdfrwt beam="2">  1       -2 0.14036665E-01 0.20867734E+02</pdfrwt>
<totfact> 0.27682116E+06</totfact>
</mgrwt>
</event>
<event>
 5      1 +1.6944000e+03 9.20612000e+01 7.81860800e-03 1.29793600e-01
        2 -1    0    0  501    0 +0.0000000000e+00 +0.0000000000e+00 +8.4916667136e+01 8.4916667136e+01 0.0000000000e+00 0.0000e+00 -1.0000e+00
       -2 -1    0    0    0  501 -0.0000000000e+00 -0.0000000000e+00 -2.4951709043e+01 2.4951709043e+01 0.0000000000e+00 0.0000e+00 1.0000e+00
       23  2    1    2    0    0 +0.0000000000e+00 +0.0000000000e+00 +5.9964958093e+01 1.0986837618e+02 9.2061196413e+01 0.0000e+00 0.0000e+00
      -11  1    3    3    0    0 -1.6824553170e+01 +4.2653518524e+01 +3.4819578251e+01 5.7574223932e+01 0.0000000000e+00 0.0000e+00 -1.0000e+00
       11  1    3    3    0    0 +1.6824553170e+01 -4.2653518524e+01 +2.5145379842e+01 5.2294152247e+01 0.0000000000e+00 0.0000e+00 1.0000e+00
<mgrwt>
<rscale>  0 0.92061196E+02</rscale>
<asrwt>0</asrwt>
<pdfrwt beam="1">  1        2 0.13064103E-01 0.92061196E+02</pdfrwt>
<pdfrwt beam="2">  1       -2 0.38387245E-02 0.92061196E+02</pdfrwt>
<totfact> 0.11375837E+05</totfact>
</mgrwt>
</event>
<event>
 4      1 +1.6944000e+03 4.28036300e+01 7.81860800e-03 1.48853800e-01
        2 -1    0    0  501    0 +0.0000000000e+00 +0.0000000000e+00 +1.3320419659e+02 1.3320419659e+02 0.0000000000e+00 0.0000e+00 1.0000e+00
       -2 -1    0    0    0  501 -0.0000000000e+00 -0.0000000000e+00 -3.4386129767e+00 3.4386129767e+00 0.0000000000e+00 0.0000e+00 -1.0000e+00
      -11  1    1    2    0    0 +1.8551469350e+01 +6.2681600410e-01 +9.8890761714e+01 1.0061775522e+02 0.0000000000e+00 0.0000e+00 1.0000e+00
       11  1    1    2    0    0 -1.8551469350e+01 -6.2681600410e-01 +3.0874821902e+01 3.6025054349e+01 0.0000000000e+00 0.0000e+00 -1.0000e+00
<mgrwt>
<rscale>  0 0.42803630E+02</rscale>
<asrwt>0</asrwt>
<pdfrwt beam="1">  1        2 0.20492949E-01 0.42803630E+02</pdfrwt>
<pdfrwt beam="2">  1       -2 0.52901748E-03 0.42803630E+02</pdfrwt>
<totfact> 0.95510272E+05</totfact>
</mgrwt>
</event>
<event>
 5      1 +1.6944000e+03 9.14581400e+01 7.81860800e-03 1.29935900e-01
       -2 -1    0    0    0  501 -0.0000000000e+00 +0.0000000000e+00 +1.2487098065e+02 1.2487098065e+02 0.0000000000e+00 0.0000e+00 -1.0000e+00
        2 -1    0    0  501    0 +0.0000000000e+00 -0.0000000000e+00 -1.6746469358e+01 1.6746469358e+01 0.0000000000e+00 0.0000e+00 1.0000e+00
       23  2    1    2    0    0 +0.0000000000e+00 +0.0000000000e+00 +1.0812451129e+02 1.4161745000e+02 9.1458144550e+01 0.0000e+00 0.0000e+00
      -13  1    3    3    0    0 +4.0855484647e+01 +2.2088458260e+00 +8.5686026825e+01 9.4953382344e+01 0.0000000000e+00 0.0000e+00 -1.0000e+00
       13  1    3    3    0    0 -4.0855484647e+01 -2.2088458260e+00 +2.2438484463e+01 4.6664067660e+01 0.0000000000e+00 0.0000e+00 1.0000e+00
<mgrwt>
<rscale>  0 0.91458145E+02</rscale>
<asrwt>0</asrwt>
<pdfrwt beam="2">  1        2 0.25763800E-02 0.91458145E+02</pdfrwt>
<pdfrwt beam="1">  1       -2 0.19210919E-01 0.91458145E+02</pdfrwt>
<totfact> 0.73866939E+04</totfact>
</mgrwt>
</event>
<event>
 5      1 +1.6944000e+03 9.17932300e+01 7.81860800e-03 1.29856600e-01
        2 -1    0    0  501    0 +0.0000000000e+00 +0.0000000000e+00 +1.9049986690e+02 1.9049986690e+02 0.0000000000e+00 0.0000e+00 -1.0000e+00
       -2 -1    0    0    0  501 -0.0000000000e+00 -0.0000000000e+00 -1.1057746025e+01 1.1057746025e+01 0.0000000000e+00 0.0000e+00 1.0000e+00
       23  2    1    2    0    0 +0.0000000000e+00 +0.0000000000e+00 +1.7944212088e+02 2.0155761293e+02 9.1793227333e+01 0.0000e+00 0.0000e+00
      -11  1    3    3    0    0 -2.2391071310e+01 +3.5662565426e+01 +1.2980953940e+02 1.3646866001e+02 0.0000000000e+00 0.0000e+00 -1.0000e+00
       11  1    3    3    0    0 +2.2391071310e+01 -3.5662565426e+01 +4.9632581480e+01 6.5088952914e+01 0.0000000000e+00 0.0000e+00 1.0000e+00
<mgrwt>
<rscale>  0 0.91793227E+02</rscale>
<asrwt>0</asrwt>
<pdfrwt beam="1">  1        2 0.29307669E-01 0.91793227E+02</pdfrwt>
<pdfrwt beam="2">  1       -2 0.17011918E-02 0.91793227E+02</pdfrwt>
<totfact> 0.14925272E+05</totfact>
</mgrwt>
</event>
<event>
 4      1 +1.6944000e+03 2.38471700e+01 7.81860800e-03 1.67813500e-01
       -3 -1    0    0    0  501 -0.0000000000e+00 +0.0000000000e+00 +1.2542960647e+01 1.2542960647e+01 0.0000000000e+00 0.0000e+00 1.0000e+00
        3 -1    0    0  501    0 +0.0000000000e+00 -0.0000000000e+00 -1.1334796647e+01 1.1334796647e+01 0.0000000000e+00 0.0000e+00 -1.0000e+00
      -11  1    1    2    0    0 +2.6787081885e+00 +1.1273535698e+01 +3.4190616560e+00 1.2081310662e+01 0.0000000000e+00 0.0000e+00 -1.0000e+00
       11  1    1    2    0    0 -2.6787081885e+00 -1.1273535698e+01 -2.2108976563e+00 1.1796446632e+01 0.0000000000e+00 0.0000e+00 1.0000e+00
<mgrwt>
<rscale>  0 0.23847172E+02</rscale>
<asrwt>0</asrwt>
<pdfrwt beam="2">  1        3 0.17438149E-02 0.23847172E+02</pdfrwt>
<pdfrwt beam="1">  1       -3 0.19296862E-02 0.23847172E+02</pdfrwt>
<totfact> 0.11980423E+06</totfact>
</mgrwt>
</event>
<event>
 5      1 +1.6944000e+03 9.30601000e+01 7.81860800e-03 1.29560600e-01
       -1 -1    0    0    0  501 -0.0000000000e+00 +0.0000000000e+00 +3.6967294951e+02 3.6967294951e+02 0.0000000000e+00 0.0000e+00 1.0000e+00
        1 -1    0    0  501    0 +0.0000000000e+00 -0.0000000000e+00 -5.8566512126e+00 5.8566512126e+00 0.0000000000e+00 0.0000e+00 -1.0000e+00
       23  2    1    2    0    0 +0.0000000000e+00 +0.0000000000e+00 +3.6381629830e+02 3.7552960073e+02 9.3060099463e+01 0.0000e+00 0.0000e+00
      -11  1    3    3    0    0 +2.6283989865e+01 +3.7635189816e+01 +2.1258470553e+02 2.1748451131e+02 0.0000000000e+00 0.0000e+00 1.0000e+00
       11  1    3    3    0    0 -2.6283989865e+01 -3.7635189816e+01 +1.5123159277e+02 1.5804508941e+02 0.0000000000e+00 0.0000e+00 -1.0000e+00
<mgrwt>
<rscale>  0 0.93060099E+02</rscale>
<asrwt>0</asrwt>
<pdfrwt beam="2">  1        1 0.90102355E-03 0.93060099E+02</pdfrwt>
<pdfrwt beam="1">  1       -1 0.56872743E-01 0.93060099E+02</pdfrwt>
<totfact> 0.52489395E+04</totfact>
</mgrwt>
</event>
<event>
 5      1 +1.6944000e+03 8.46566600e+01 7.81860800e-03 1.31633300e-01
       -3 -1    0    0    0  501 -0.0000000000e+00 +0.0000000000e+00 +1.1268027468e+02 1.1268027468e+02 0.0000000000e+00 0.0000e+00 1.0000e+00
        3 -1    0    0  501    0 +0.0000000000e+00 -0.0000000000e+00 -1.5900631671e+01 1.5900631671e+01 0.0000000000e+00 0.0000e+00 -1.0000e+00
       23  2    1    2    0    0 +0.0000000000e+00 +0.0000000000e+00 +9.6779643009e+01 1.2858090635e+02 8.4656660560e+01 0.0000e+00 0.0000e+00
      -13  1    3    3    0    0 +1.3206940384e+01 +2.9945484603e+01 +7.6196955349e+00 3.3603795656e+01 0.0000000000e+00 0.0000e+00 -1.0000e+00
       13  1    3    3    0    0 -1.3206940384e+01 -2.9945484603e+01 +8.9159947474e+01 9.4977110695e+01 0.0000000000e+00 0.0000e+00 1.0000e+00
<mgrwt>
<rscale>  0 0.84656661E+02</rscale>
<asrwt>0</asrwt>
<pdfrwt beam="2">  1        3 0.24462511E-02 0.84656661E+02</pdfrwt>
<pdfrwt beam="1">  1       -3 0.17335426E-01 0.84656661E+02</pdfrwt>
<totfact> 0.39911225E+04</totfact>
</mgrwt>
</event>
<event>
 5      1 +1.6944000e+03 9.12258300e+01 7.81860800e-03 1.29991000e-01
        2 -1    0    0  501    0 +0.0000000000e+00 +0.0000000000e+00 +1.8722108460e+02 1.8722108460e+02 0.0000000000e+00 0.0000e+00 -1.0000e+00
       -2 -1    0    0    0  501 -0.0000000000e+00 -0.0000000000e+00 -1.1112734016e+01 1.1112734016e+01 0.0000000000e+00 0.0000e+00 1.0000e+00
       23  2    1    2    0    0 +0.0000000000e+00 +0.0000000000e+00 +1.7610835059e+02 1.9833381862e+02 9.1225832207e+01 0.0000e+00 0.0000e+00
      -11  1    3    3    0    0 +3.9065396836e+01 +2.3472949415e+01 +9.2094447608e+01 1.0275442504e+02 0.0000000000e+00 0.0000e+00 1.0000e+00
       11  1    3    3    0    0 -3.9065396836e+01 -2.3472949415e+01 +8.4013902979e+01 9.5579393585e+01 0.0000000000e+00 0.0000e+00 -1.0000e+00
<mgrwt>
<rscale>  0 0.91225832E+02</rscale>
<asrwt>0</asrwt>
<pdfrwt beam="1">  1        2 0.28803242E-01 0.91225832E+02</pdfrwt>
<pdfrwt beam="2">  1       -2 0.17096515E-02 0.91225832E+02</pdfrwt>
<totfact> 0.15083038E+05</totfact>
</mgrwt>
</event>
<event>
 5      1 +1.6944000e+03 9.12073200e+01 7.81860800e-03 1.29995400e-01
       -1 -1    0    0    0  501 -0.0000000000e+00 +0.0000000000e+00 +1.9702206218e+02 1.9702206218e+02 0.0000000000e+00 0.0000e+00 1.0000e+00
        1 -1    0    0  501    0 +0.0000000000e+00 -0.0000000000e+00 -1.0555638158e+01 1.0555638158e+01 0.0000000000e+00 0.0000e+00 -1.0000e+00
       23  2    1    2    0    0 +0.0000000000e+00 +0.0000000000e+00 +1.8646642403e+02 2.0757770034e+02 9.1207315443e+01 0.0000e+00 0.0000e+00
      -11  1    3    3    0    0 -3.1709100739e+01 +3.0504932941e+00 +1.6750257905e+02 1.7050479925e+02 0.0000000000e+00 0.0000e+00 1.0000e+00
       11  1    3    3    0    0 +3.1709100739e+01 -3.0504932941e+00 +1.8963844974e+01 3.7072901090e+01 0.0000000000e+00 0.0000e+00 -1.0000e+00
<mgrwt>
<rscale>  0 0.91207315E+02</rscale>
<asrwt>0</asrwt>
<pdfrwt beam="2">  1        1 0.16239445E-02 0.91207315E+02</pdfrwt>
<pdfrwt beam="1">  1       -1 0.30311084E-01 0.91207315E+02</pdfrwt>
<totfact> 0.69660811E+04</totfact>
</mgrwt>
</event>
<event>
 4      1 +1.6944000e+03 2.44305600e+01 7.81860800e-03 1.66931800e-01
        3 -1    0    0  501    0 +0.0000000000e+00 +0.0000000000e+00 +2.8912882156e+00 2.8912882156e+00 0.0000000000e+00 0.0000e+00 1.0000e+00
       -3 -1    0    0    0  501 -0.0000000000e+00 -0.0000000000e+00 -5.1607812924e+01 5.1607812924e+01 0.0000000000e+00 0.0000e+00 -1.0000e+00
      -11  1    1    2    0    0 -8.3414618021e+00 -8.9120300349e+00 -2.3338924732e+01 2.6338368818e+01 0.0000000000e+00 0.0000e+00 1.0000e+00
       11  1    1    2    0    0 +8.3414618021e+00 +8.9120300349e+00 -2.5377599976e+01 2.8160732322e+01 0.0000000000e+00 0.0000e+00 -1.0000e+00
<mgrwt>
<rscale>  0 0.24430560E+02</rscale>
<asrwt>0</asrwt>
<pdfrwt beam="1">  1        3 0.44481354E-03 0.24430560E+02</pdfrwt>
<pdfrwt beam="2">  1       -3 0.79396641E-02 0.24430560E+02</pdfrwt>
<totfact> 0.10310441E+06</totfact>
</mgrwt>
</event>
<event>
 4      1 +1.6944000e+03 4.11511800e+01 7.81860800e-03 1.49990700e-01
        2 -1    0    0  501    0 +0.0000000000e+00 +0.0000000000e+00 +6.6137805896e+01 6.6137805896e+01 0.0000000000e+00 0.0000e+00 -1.0000e+00
       -2 -1    0    0    0  501 -0.0000000000e+00 -0.0000000000e+00 -6.4011041610e+00 6.4011041610e+00 0.0000000000e+00 0.0000e+00 1.0000e+00
      -13  1    1    2    0    0 +8.3017019764e+00 +6.7994653569e+00 +6.0814586394e+01 6.1754067908e+01 0.0000000000e+00 0.0000e+00 -1.0000e+00
       13  1    1    2    0    0 -8.3017019764e+00 -6.7994653569e+00 -1.0778846594e+00 1.0784842149e+01 0.0000000000e+00 0.0000e+00 1.0000e+00
<mgrwt>
<rscale>  0 0.41151184E+02</rscale>
<asrwt>0</asrwt>
<pdfrwt beam="1">  1        2 0.10175047E-01 0.41151184E+02</pdfrwt>
<pdfrwt beam="2">  1       -2 0.98478530E-03 0.41151184E+02</pdfrwt>
<totfact> 0.88676598E+05</totfact>
</mgrwt>
</event>
<event>
 5      1 +1.6944000e+03 8.98653300e+01 7.81860800e-03 1.30317800e-01
        2 -1    0    0  501    0 +0.0000000000e+00 +0.0000000000e+00 +2.1855729081e+02 2.1855729081e+02 0.0000000000e+00 0.0000e+00 -1.0000e+00
       -2 -1    0    0    0  501 -0.0000000000e+00 -0.0000000000e+00 -9.2375976790e+00 9.2375976790e+00 0.0000000000e+00 0.0000e+00 1.0000e+00
       23  2    1    2    0    0 +0.0000000000e+00 +0.0000000000e+00 +2.0931969313e+02 2.2779488849e+02 8.9865328627e+01 0.0000e+00 0.0000e+00
      -13  1    3    3    0    0 -6.6002838781e-01 -3.9253545178e+01 +4.9259201010e+01 6.2990041520e+01 0.0000000000e+00 0.0000e+00 1.0000e+00
       13  1    3    3    0    0 +6.6002838781e-01 +3.9253545178e+01 +1.6006049212e+02 1.6480484697e+02 0.0000000000e+00 0.0000e+00 -1.0000e+00
<mgrwt>
<rscale>  0 0.89865329E+02</rscale>
<asrwt>0</asrwt>
<pdfrwt beam="1">  1        2 0.33624195E-01 0.89865329E+02</pdfrwt>
<pdfrwt beam="2">  1       -2 0.14211690E-02 0.89865329E+02</pdfrwt>
<totfact> 0.16608666E+05</totfact>
</mgrwt>
</event>
<event>
 4      1 +1.6944000e+03 4.62435800e+01 7.81860800e-03 1.46672400e-01
        2 -1    0    0  501    0 +0.0000000000e+00 +0.0000000000e+00 +1.2804077430e+01 1.2804077430e+01 0.0000000000e+00 0.0000e+00 1.0000e+00
       -2 -1    0    0    0  501 -0.0000000000e+00 -0.0000000000e+00 -4.1753674088e+01 4.1753674088e+01 0.0000000000e+00 0.0000e+00 -1.0000e+00
      -11  1    1    2    0    0 +1.9917219711e+01 +3.4133364748e+00 -2.7732138082e+01 3.4313524877e+01 0.0000000000e+00 0.0000e+00 -1.0000e+00
       11  1    1    2    0    0 -1.9917219711e+01 -3.4133364748e+00 -1.2174585759e+00 2.0244226641e+01 0.0000000000e+00 0.0000e+00 1.0000e+00
<mgrwt>
<rscale>  0 0.46243584E+02</rscale>
<asrwt>0</asrwt>
<pdfrwt beam="1">  1        2 0.19698581E-02 0.46243584E+02</pdfrwt>
<pdfrwt beam="2">  1       -2 0.64236422E-02 0.46243584E+02</pdfrwt>
<totfact> 0.50623721E+05</totfact>
</mgrwt>
</event>
<event>
 4      1 +1.6944000e+03 2.23474200e+01 7.81860800e-03 1.70231200e-01
       -1 -1    0    0    0  501 -0.0000000000e+00 +0.0000000000e+00 +1.1776352037e+01 1.1776352037e+01 0.0000000000e+00 0.0000e+00 1.0000e+00
        1 -1    0    0  501    0 +0.0000000000e+00 -0.0000000000e+00 -1.0601910610e+01 1.0601910610e+01 0.0000000000e+00 0.0000e+00 -1.0000e+00
      -11  1    1    2    0    0 -9.7375664683e+00 +2.5553384681e+00 +5.4417841352e+00 1.1443905364e+01 0.0000000000e+00 0.0000e+00 -1.0000e+00
       11  1    1    2    0    0 +9.7375664683e+00 -2.5553384681e+00 -4.2673427083e+00 1.0934357283e+01 0.0000000000e+00 0.0000e+00 1.0000e+00
<mgrwt>
<rscale>  0 0.22347423E+02</rscale>
<asrwt>0</asrwt>
<pdfrwt beam="2">  1        1 0.16310632E-02 0.22347423E+02</pdfrwt>
<pdfrwt beam="1">  1       -1 0.18117465E-02 0.22347423E+02</pdfrwt>
<totfact> 0.30023596E+06</totfact>
</mgrwt>
</event>
<event>
 5      1 +1.6944000e+03 9.01214800e+01 7.81860800e-03 1.30255800e-01
        3 -1    0    0  501    0 +0.0000000000e+00 +0.0000000000e+00 +9.1857066288e+00 9.1857066288e+00 0.0000000000e+00 0.0000e+00 -1.0000e+00
       -3 -1    0    0    0  501 -0.0000000000e+00 -0.0000000000e+00 -2.2104673753e+02 2.2104673753e+02 0.0000000000e+00 0.0000e+00 1.0000e+00
       23  2    1    2    0    0 +0.0000000000e+00 +0.0000000000e+00 -2.1186103090e+02 2.3023244415e+02 9.0121484279e+01 0.0000e+00 0.0000e+00
      -11  1    3    3    0    0 +4.4392772954e+01 -7.4573968028e+00 -1.1112817913e+02 1.1989913784e+02 0.0000000000e+00 0.0000e+00 1.0000e+00
       11  1    3    3    0    0 -4.4392772954e+01 +7.4573968028e+00 -1.0073285177e+02 1.1033330632e+02 0.0000000000e+00 0.0000e+00 -1.0000e+00
<mgrwt>
<rscale>  0 0.90121484E+02</rscale>
<asrwt>0</asrwt>
<pdfrwt beam="1">  1        3 0.14131857E-02 0.90121484E+02</pdfrwt>
<pdfrwt beam="2">  1       -3 0.34007189E-01 0.90121484E+02</pdfrwt>
<totfact> 0.27863006E+04</totfact>
</mgrwt>
</event>
<event>
 5      1 +1.6944000e+03 8.94912100e+01 7.81860800e-03 1.30408900e-01
        1 -1    0    0  501    0 +0.0000000000e+00 +0.0000000000e+00 +9.3821761519e+00 9.3821761519e+00 0.0000000000e+00 0.0000e+00 -1.0000e+00
       -1 -1    0    0    0  501 -0.0000000000e+00 -0.0000000000e+00 -2.1340134897e+02 2.1340134897e+02 0.0000000000e+00 0.0000e+00 1.0000e+00
       23  2    1    2    0    0 +0.0000000000e+00 +0.0000000000e+00 -2.0401917282e+02 2.2278352512e+02 8.9491207324e+01 0.0000e+00 0.0000e+00
      -13  1    3    3    0    0 +4.0190434278e+01 +2.9765694362e+00 -1.5041238528e+02 1.5571774664e+02 0.0000000000e+00 0.0000e+00 1.0000e+00
       13  1    3    3    0    0 -4.0190434278e+01 -2.9765694362e+00 -5.3606787534e+01 6.7065778477e+01 0.0000000000e+00 0.0000e+00 -1.0000e+00
<mgrwt>
<rscale>  0 0.89491207E+02</rscale>
<asrwt>0</asrwt>
<pdfrwt beam="1">  1        1 0.14434118E-02 0.89491207E+02</pdfrwt>
<pdfrwt beam="2">  1       -1 0.32830975E-01 0.89491207E+02</pdfrwt>
<totfact> 0.71509768E+04</totfact>
</mgrwt>
</event>
<event>
 4      1 +1.6944000e+03 2.02129600e+01 7.81860800e-03 1.74112600e-01
       -2 -1    0    0    0  501 -0.0000000000e+00 +0.0000000000e+00 +5.6117833777e+01 5.6117833777e+01 0.0000000000e+00 0.0000e+00 1.0000e+00
        2 -1    0    0  501    0 +0.0000000000e+00 -0.0000000000e+00 -1.8201148180e+00 1.8201148180e+00 0.0000000000e+00 0.0000e+00 -1.0000e+00
      -13  1    1    2    0    0 +2.2859245449e+00 +9.7615434306e+00 +3.0805843635e+01 3.2396190875e+01 0.0000000000e+00 0.0000e+00 1.0000e+00
       13  1    1    2    0    0 -2.2859245449e+00 -9.7615434306e+00 +2.3491875325e+01 2.5541757720e+01 0.0000000000e+00 0.0000e+00 -1.0000e+00
<mgrwt>
<rscale>  0 0.20212956E+02</rscale>
<asrwt>0</asrwt>
<pdfrwt beam="2">  1        2 0.28001771E-03 0.20212956E+02</pdfrwt>
<pdfrwt beam="1">  1       -2 0.86335116E-02 0.20212956E+02</pdfrwt>
<totfact> 0.32553560E+06</totfact>
</mgrwt>
</event>
<event>
 5      1 +1.6944000e+03 9.21973500e+01 7.81860800e-03 1.29761600e-01
        1 -1    0    0  501    0 +0.0000000000e+00 +0.0000000000e+00 +1.0481898129e+02 1.0481898129e+02 0.0000000000e+00 0.0000e+00 -1.0000e+00
       -1 -1    0    0    0  501 -0.0000000000e+00 -0.0000000000e+00 -2.0273884363e+01 2.0273884363e+01 0.0000000000e+00 0.0000e+00 1.0000e+00
       23  2    1    2    0    0 +0.0000000000e+00 +0.0000000000e+00 +8.4545096923e+01 1.2509286565e+02 9.2197351495e+01 0.0000e+00 0.0000e+00
      -13  1    3    3    0    0 +4.5407707217e+01 -4.2166148277e-01 +5.3046064000e+01 6.9827806632e+01 0.0000000000e+00 0.0000e+00 -1.0000e+00
       13  1    3    3    0    0 -4.5407707217e+01 +4.2166148277e-01 +3.1499032923e+01 5.5265059018e+01 0.0000000000e+00 0.0000e+00 1.0000e+00
<mgrwt>
<rscale>  0 0.92197351E+02</rscale>
<asrwt>0</asrwt>
<pdfrwt beam="1">  1        1 0.16125997E-01 0.92197351E+02</pdfrwt>
<pdfrwt beam="2">  1       -1 0.31190592E-02 0.92197351E+02</pdfrwt>
<totfact> 0.10212969E+05</totfact>
</mgrwt>
</event>
<event>
 5      1 +1.6944000e+03 7.23178300e+01 7.81860800e-03 1.35238400e-01
       -1 -1    0    0    0  501 -0.0000000000e+00 +0.0000000000e+00 +1.0191101884e+02 1.0191101884e+02 0.0000000000e+00 0.0000e+00 -1.0000e+00
        1 -1    0    0  501    0 +0.0000000000e+00 -0.0000000000e+00 -1.2829496516e+01 1.2829496516e+01 0.0000000000e+00 0.0000e+00 1.0000e+00
       23  2    1    2    0    0 +0.0000000000e+00 +0.0000000000e+00 +8.9081522319e+01 1.1474051535e+02 7.2317827985e+01 0.0000e+00 0.0000e+00
      -13  1    3    3    0    0 -3.1931271795e+01 -5.6947349384e+00 +1.9183159796e+01 3.7683282026e+01 0.0000000000e+00 0.0000e+00 1.0000e+00
       13  1    3    3    0    0 +3.1931271795e+01 +5.6947349384e+00 +6.9898362523e+01 7.7057233326e+01 0.0000000000e+00 0.0000e+00 -1.0000e+00
<mgrwt>
<rscale>  0 0.72317828E+02</rscale>
<asrwt>0</asrwt>
<pdfrwt beam="2">  1        1 0.19737688E-02 0.72317828E+02</pdfrwt>
<pdfrwt beam="1">  1       -1 0.15678618E-01 0.72317828E+02</pdfrwt>
<totfact> 0.14681986E+05</totfact>
</mgrwt>
</event>
<event>
 5      1 +1.6944000e+03 9.05215100e+01 7.81860800e-03 1.30159400e-01
        2 -1    0    0  501    0 +0.0000000000e+00 +0.0000000000e+00 +1.2951730888e+02 1.2951730888e+02 0.0000000000e+00 0.0000e+00 1.0000e+00
       -2 -1    0    0    0  501 -0.0000000000e+00 -0.0000000000e+00 -1.5816695772e+01 1.5816695772e+01 0.0000000000e+00 0.0000e+00 -1.0000e+00
       23  2    1    2    0    0 +0.0000000000e+00 +0.0000000000e+00 +1.1370061311e+02 1.4533400465e+02 9.0521508423e+01 0.0000e+00 0.0000e+00
      -11  1    3    3    0    0 -2.6832412320e+01 -2.2628101180e+01 +1.0972714449e+01 3.6775124423e+01 0.0000000000e+00 0.0000e+00 -1.0000e+00
       11  1    3    3    0    0 +2.6832412320e+01 +2.2628101180e+01 +1.0272789866e+02 1.0855888023e+02 0.0000000000e+00 0.0000e+00 1.0000e+00
<mgrwt>
<rscale>  0 0.90521508E+02</rscale>
<asrwt>0</asrwt>
<pdfrwt beam="1">  1        2 0.19925739E-01 0.90521508E+02</pdfrwt>
<pdfrwt beam="2">  1       -2 0.24333379E-02 0.90521508E+02</pdfrwt>
<totfact> 0.13575982E+05</totfact>
</mgrwt>
</event>
<event>
 5      1 +1.6944000e+03 9.58216200e+01 7.81860800e-03 1.28933600e-01
        2 -1    0    0  501    0 +0.0000000000e+00 +0.0000000000e+00 +9.6074866223e+01 9.6074866223e+01 0.0000000000e+00 0.0000e+00 -1.0000e+00
       -2 -1    0    0    0  501 -0.0000000000e+00 -0.0000000000e+00 -2.3892261723e+01 2.3892261723e+01 0.0000000000e+00 0.0000e+00 1.0000e+00
       23  2    1    2    0    0 +0.0000000000e+00 +0.0000000000e+00 +7.2182604500e+01 1.1996712795e+02 9.5821622796e+01 0.0000e+00 0.0000e+00
      -13  1    3    3    0    0 -3.9402254805e+01 -6.8820900961e+00 +3.0724968267e+00 4.0116593631e+01 0.0000000000e+00 0.0000e+00 1.0000e+00
       13  1    3    3    0    0 +3.9402254805e+01 +6.8820900961e+00 +6.9110107674e+01 7.9850534315e+01 0.0000000000e+00 0.0000e+00 -1.0000e+00
<mgrwt>
<rscale>  0 0.95821623E+02</rscale>
<asrwt>0</asrwt>
<pdfrwt beam="1">  1        2 0.14780749E-01 0.95821623E+02</pdfrwt>
<pdfrwt beam="2">  1       -2 0.36757326E-02 0.95821623E+02</pdfrwt>
<totfact> 0.10561411E+05</totfact>
</mgrwt>
</event>
<event>
 5      1 +1.6944000e+03 9.15599100e+01 7.81860800e-03 1.29911800e-01
       -3 -1    0    0    0  501 -0.0000000000e+00 +0.0000000000e+00 +2.1924289712e+01 2.1924289712e+01 0.0000000000e+00 0.0000e+00 1.0000e+00
        3 -1    0    0  501    0 +0.0000000000e+00 -0.0000000000e+00 -9.5592812079e+01 9.5592812079e+01 0.0000000000e+00 0.0000e+00 -1.0000e+00
       23  2    1    2    0    0 +0.0000000000e+00 +0.0000000000e+00 -7.3668522367e+01 1.1751710179e+02 9.1559914949e+01 0.0000e+00 0.0000e+00
      -13  1    3    3    0    0 +9.6571048308e+00 -4.3736680392e+01 -2.4681776671e+01 5.1140463285e+01 0.0000000000e+00 0.0000e+00 1.0000e+00
       13  1    3    3    0    0 -9.6571048308e+00 +4.3736680392e+01 -4.8986745696e+01 6.6376638506e+01 0.0000000000e+00 0.0000e+00 -1.0000e+00
<mgrwt>
<rscale>  0 0.91559915E+02</rscale>
<asrwt>0</asrwt>
<pdfrwt beam="2">  1        3 0.14706587E-01 0.91559915E+02</pdfrwt>
<pdfrwt beam="1">  1       -3 0.33729675E-02 0.91559915E+02</pdfrwt>
<totfact> 0.33037809E+04</totfact>
</mgrwt>
</event>
<event>
 5      1 +1.6944000e+03 9.10029700e+01 7.81860800e-03 1.30044100e-01
        1 -1    0    0  501    0 +0.0000000000e+00 +0.0000000000e+00 +1.1024805026e+01 1.1024805026e+01 0.0000000000e+00 0.0000e+00 -1.0000e+00
       -1 -1    0    0    0  501 -0.0000000000e+00 -0.0000000000e+00 -1.8779335215e+02 1.8779335215e+02 0.0000000000e+00 0.0000e+00 1.0000e+00
       23  2    1    2    0    0 +0.0000000000e+00 +0.0000000000e+00 -1.7676854713e+02 1.9881815718e+02 9.1002969020e+01 0.0000e+00 0.0000e+00
      -11  1    3    3    0    0 -5.8267260787e+00 -2.7830645490e+01 -1.6599310611e+02 1.6841082756e+02 0.0000000000e+00 0.0000e+00 1.0000e+00
       11  1    3    3    0    0 +5.8267260787e+00 +2.7830645490e+01 -1.0775441019e+01 3.0407329616e+01 0.0000000000e+00 0.0000e+00 -1.0000e+00
<mgrwt>
<rscale>  0 0.91002969E+02</rscale>
<asrwt>0</asrwt>
<pdfrwt beam="1">  1        1 0.16961239E-02 0.91002969E+02</pdfrwt>
<pdfrwt beam="2">  1       -1 0.28891284E-01 0.91002969E+02</pdfrwt>
<totfact> 0.71010297E+04</totfact>
</mgrwt>
</event>
<event>
 5      1 +1.6944000e+03 9.11265300e+01 7.81860800e-03 1.30014600e-01
        3 -1    0    0  501    0 +0.0000000000e+00 +0.0000000000e+00 +2.1594090983e+01 2.1594090983e+01 0.0000000000e+00 0.0000e+00 -1.0000e+00
       -3 -1    0    0    0  501 -0.0000000000e+00 -0.0000000000e+00 -9.6137931473e+01 9.6137931473e+01 0.0000000000e+00 0.0000e+00 1.0000e+00
       23  2    1    2    0    0 +0.0000000000e+00 +0.0000000000e+00 -7.4543840491e+01 1.1773202246e+02 9.1126532670e+01 0.0000e+00 0.0000e+00
      -13  1    3    3    0    0 +1.1908613094e+01 -4.1772885556e+01 -5.5043899965e+01 7.0118613484e+01 0.0000000000e+00 0.0000e+00 -1.0000e+00
       13  1    3    3    0    0 -1.1908613094e+01 +4.1772885556e+01 -1.9499940526e+01 4.7613408973e+01 0.0000000000e+00 0.0000e+00 1.0000e+00
<mgrwt>
<rscale>  0 0.91126533E+02</rscale>
<asrwt>0</asrwt>
<pdfrwt beam="1">  1        3 0.33221678E-02 0.91126533E+02</pdfrwt>
<pdfrwt beam="2">  1       -3 0.14790451E-01 0.91126533E+02</pdfrwt>
<totfact> 0.33454046E+04</totfact>
</mgrwt>
</event>
<event>
 5      1 +1.6944000e+03 9.01410600e+01 7.81860800e-03 1.30251000e-01
        2 -1    0    0  501    0 +0.0000000000e+00 +0.0000000000e+00 +3.5403510804e+02 3.5403510804e+02 0.0000000000e+00 0.0000e+00 -1.0000e+00
       -2 -1    0    0    0  501 -0.0000000000e+00 -0.0000000000e+00 -5.7377153013e+00 5.7377153013e+00 0.0000000000e+00 0.0000e+00 1.0000e+00
       23  2    1    2    0    0 +0.0000000000e+00 +0.0000000000e+00 +3.4829739274e+02 3.5977282334e+02 9.0141059603e+01 0.0000e+00 0.0000e+00
      -13  1    3    3    0    0 -2.5207051123e+01 -3.7103758277e+01 +1.5662894328e+02 1.6292547431e+02 0.0000000000e+00 0.0000e+00 1.0000e+00
       13  1    3    3    0    0 +2.5207051123e+01 +3.7103758277e+01 +1.9166844945e+02 1.9684734903e+02 0.0000000000e+00 0.0000e+00 -1.0000e+00
<mgrwt>
<rscale>  0 0.90141060E+02</rscale>
<asrwt>0</asrwt>
<pdfrwt beam="1">  1        2 0.54466923E-01 0.90141060E+02</pdfrwt>
<pdfrwt beam="2">  1       -2 0.88272571E-03 0.90141060E+02</pdfrwt>
<totfact> 0.19688306E+05</totfact>
</mgrwt>
</event>
<event>
 5      1 +1.6944000e+03 9.17946700e+01 7.81860800e-03 1.29856300e-01
        1 -1    0    0  501    0 +0.0000000000e+00 +0.0000000000e+00 +2.3854698752e+02 2.3854698752e+02 0.0000000000e+00 0.0000e+00 -1.0000e+00
       -1 -1    0    0    0  501 -0.0000000000e+00 -0.0000000000e+00 -8.8308196430e+00 8.8308196430e+00 0.0000000000e+00 0.0000e+00 1.0000e+00
       23  2    1    2    0    0 +0.0000000000e+00 +0.0000000000e+00 +2.2971616788e+02 2.4737780716e+02 9.1794671374e+01 0.0000e+00 0.0000e+00
      -11  1    3    3    0    0 +1.2982768027e+01 -3.1583352181e+01 +3.2211706245e+01 4.6943097681e+01 0.0000000000e+00 0.0000e+00 1.0000e+00
       11  1    3    3    0    0 -1.2982768027e+01 +3.1583352181e+01 +1.9750446163e+02 2.0043470948e+02 0.0000000000e+00 0.0000e+00 -1.0000e+00
<mgrwt>
<rscale>  0 0.91794671E+02</rscale>
<asrwt>0</asrwt>
<pdfrwt beam="1">  1        1 0.36699532E-01 0.91794671E+02</pdfrwt>
<pdfrwt beam="2">  1       -1 0.13585878E-02 0.91794671E+02</pdfrwt>
<totfact> 0.12034954E+05</totfact>
</mgrwt>
</event>
<event>
 5      1 +1.6944000e+03 9.21889300e+01 7.81860800e-03 1.29763600e-01
        1 -1    0    0  501    0 +0.0000000000e+00 +0.0000000000e+00 +1.7761906581e+01 1.7761906581e+01 0.0000000000e+00 0.0000e+00 -1.0000e+00
       -1 -1    0    0    0  501 -0.0000000000e+00 -0.0000000000e+00 -1.1962114820e+02 1.1962114820e+02 0.0000000000e+00 0.0000e+00 1.0000e+00
       23  2    1    2    0    0 +0.0000000000e+00 +0.0000000000e+00 -1.0185924162e+02 1.3738305478e+02 9.2188929043e+01 0.0000e+00 0.0000e+00
      -11  1    3    3    0    0 +1.2932785622e+01 -3.2120154971e+01 -5.5878445917e+00 3.5073997583e+01 0.0000000000e+00 0.0000e+00 -1.0000e+00
       11  1    3    3    0    0 -1.2932785622e+01 +3.2120154971e+01 -9.6271397028e+01 1.0230905720e+02 0.0000000000e+00 0.0000e+00 1.0000e+00
<mgrwt>
<rscale>  0 0.92188929E+02</rscale>
<asrwt>0</asrwt>
<pdfrwt beam="1">  1        1 0.27326010E-02 0.92188929E+02</pdfrwt>
<pdfrwt beam="2">  1       -1 0.18403254E-01 0.92188929E+02</pdfrwt>
<totfact> 0.76368124E+04</totfact>
</mgrwt>
</event>
<event>
 5      1 +1.6944000e+03 9.10546800e+01 7.81860800e-03 1.30031800e-01
        1 -1    0    0  501    0 +0.0000000000e+00 +0.0000000000e+00 +1.8933482965e+01 1.8933482965e+01 0.0000000000e+00 0.0000e+00 -1.0000e+00
       -1 -1    0    0    0  501 -0.0000000000e+00 -0.0000000000e+00 -1.0947476693e+02 1.0947476693e+02 0.0000000000e+00 0.0000e+00 1.0000e+00
       23  2    1    2    0    0 +0.0000000000e+00 +0.0000000000e+00 -9.0541283968e+01 1.2840824990e+02 9.1054678845e+01 0.0000e+00 0.0000e+00
      -13  1    3    3    0    0 +2.3126842034e+01 -4.5939266864e+00 +9.6521339317e+00 2.5477807486e+01 0.0000000000e+00 0.0000e+00 1.0000e+00
       13  1    3    3    0    0 -2.3126842034e+01 +4.5939266864e+00 -1.0019341790e+02 1.0293044241e+02 0.0000000000e+00 0.0000e+00 -1.0000e+00
<mgrwt>
<rscale>  0 0.91054679E+02</rscale>
<asrwt>0</asrwt>
<pdfrwt beam="1">  1        1 0.29128435E-02 0.91054679E+02</pdfrwt>
<pdfrwt beam="2">  1       -1 0.16842272E-01 0.91054679E+02</pdfrwt>
<totfact> 0.80259402E+04</totfact>
</mgrwt>
</event>
<event>
 4      1 +1.6944000e+03 3.40060400e+01 7.81860800e-03 1.55760900e-01
        1 -1    0    0  501    0 +0.0000000000e+00 +0.0000000000e+00 +5.4254674703e+01 5.4254674703e+01 0.0000000000e+00 0.0000e+00 -1.0000e+00
       -1 -1    0    0    0  501 -0.0000000000e+00 -0.0000000000e+00 -5.3286225875e+00 5.3286225875e+00 0.0000000000e+00 0.0000e+00 1.0000e+00
      -11  1    1    2    0    0 +6.1909021281e+00 -1.4429867533e+01 +3.5892872580e+01 3.9177118937e+01 0.0000000000e+00 0.0000e+00 -1.0000e+00
       11  1    1    2    0    0 -6.1909021281e+00 +1.4429867533e+01 +1.3033179535e+01 2.0406178353e+01 0.0000000000e+00 0.0000e+00 1.0000e+00
<mgrwt>
<rscale>  0 0.34006040E+02</rscale>
<asrwt>0</asrwt>
<pdfrwt beam="1">  1        1 0.83468727E-02 0.34006040E+02</pdfrwt>
<pdfrwt beam="2">  1       -1 0.81978813E-03 0.34006040E+02</pdfrwt>
<totfact> 0.12240846E+06</totfact>
</mgrwt>
</event>
<event>
 5      1 +1.6944000e+03 9.13298200e+01 7.81860800e-03 1.29966300e-01
       -2 -1    0    0    0  501 -0.0000000000e+00 +0.0000000000e+00 +2.4107853033e+01 2.4107853033e+01 0.0000000000e+00 0.0000e+00 1.0000e+00
        2 -1    0    0  501    0 +0.0000000000e+00 -0.0000000000e+00 -8.6498127551e+01 8.6498127551e+01 0.0000000000e+00 0.0000e+00 -1.0000e+00
       23  2    1    2    0    0 +0.0000000000e+00 +0.0000000000e+00 -6.2390274519e+01 1.1060598058e+02 9.1329823094e+01 0.0000e+00 0.0000e+00
      -13  1    3    3    0    0 +4.4290956778e+01 +1.1101595952e+01 -3.1911468938e+01 5.5707056418e+01 0.0000000000e+00 0.0000e+00 -1.0000e+00
       13  1    3    3    0    0 -4.4290956778e+01 -1.1101595952e+01 -3.0478805581e+01 5.4898924166e+01 0.0000000000e+00 0.0000e+00 1.0000e+00
<mgrwt>
<rscale>  0 0.91329823E+02</rscale>
<asrwt>0</asrwt>
<pdfrwt beam="2">  1        2 0.13307404E-01 0.91329823E+02</pdfrwt>
<pdfrwt beam="1">  1       -2 0.37089004E-02 0.91329823E+02</pdfrwt>
<totfact> 0.11693435E+05</totfact>
</mgrwt>
</event>
<event>
 4      1 +1.6944000e+03 1.32161700e+02 7.81860800e-03 1.22428300e-01
        1 -1    0    0  501    0 +0.0000000000e+00 +0.0000000000e+00 +2.5251507136e+02 2.5251507136e+02 0.0000000000e+00 0.0000e+00 -1.0000e+00
       -1 -1    0    0    0  501 -0.0000000000e+00 -0.0000000000e+00 -1.7292747568e+01 1.7292747568e+01 0.0000000000e+00 0.0000e+00 1.0000e+00
      -13  1    1    2    0    0 +1.6419640179e+00 -4.4872755689e+01 +1.8637066789e+01 4.8616874720e+01 0.0000000000e+00 0.0000e+00 1.0000e+00
       13  1    1    2    0    0 -1.6419640179e+00 +4.4872755689e+01 +2.1658525700e+02 2.2119094421e+02 0.0000000000e+00 0.0000e+00 -1.0000e+00
<mgrwt>
<rscale>  0 0.13216171E+03</rscale>
<asrwt>0</asrwt>
<pdfrwt beam="1">  1        1 0.38848470E-01 0.13216171E+03</pdfrwt>
<pdfrwt beam="2">  1       -1 0.26604229E-02 0.13216171E+03</pdfrwt>
<totfact> 0.45027570E+04</totfact>
</mgrwt>
</event>
<event>
 5      1 +1.6944000e+03 8.83839500e+01 7.81860800e-03 1.30681300e-01
        4 -1    0    0  501    0 +0.0000000000e+00 +0.0000000000e+00 +3.0569131915e+01 3.0569131915e+01 0.0000000000e+00 0.0000e+00 -1.0000e+00
       -4 -1    0    0    0  501 -0.0000000000e+00 -0.0000000000e+00 -6.3885706765e+01 6.3885706765e+01 0.0000000000e+00 0.0000e+00 1.0000e+00
       23  2    1    2    0    0 +0.0000000000e+00 +0.0000000000e+00 -3.3316574850e+01 9.4454838679e+01 8.8383948714e+01 0.0000e+00 0.0000e+00
      -13  1    3    3    0    0 -1.2746579901e+01 +2.0967876230e+01 -5.5936063786e+01 6.1081669629e+01 0.0000000000e+00 0.0000e+00 1.0000e+00
       13  1    3    3    0    0 +1.2746579901e+01 -2.0967876230e+01 +2.2619488936e+01 3.3373169051e+01 0.0000000000e+00 0.0000e+00 -1.0000e+00
<mgrwt>
<rscale>  0 0.88383949E+02</rscale>
<asrwt>0</asrwt>
<pdfrwt beam="1">  1        4 0.47029434E-02 0.88383949E+02</pdfrwt>
<pdfrwt beam="2">  1       -4 0.98285701E-02 0.88383949E+02</pdfrwt>
<totfact> 0.29157129E+04</totfact>
</mgrwt>
</event>
<event>
 5      1 +1.6944000e+03 9.12484200e+01 7.81860800e-03 1.29985600e-01
        1 -1    0    0  501    0 +0.0000000000e+00 +0.0000000000e+00 +2.4993926019e+02 2.4993926019e+02 0.0000000000e+00 0.0000e+00 -1.0000e+00
       -1 -1    0    0    0  501 -0.0000000000e+00 -0.0000000000e+00 -8.3282969217e+00 8.3282969217e+00 0.0000000000e+00 0.0000e+00 1.0000e+00
       23  2    1    2    0    0 +0.0000000000e+00 +0.0000000000e+00 +2.4161096327e+02 2.5826755711e+02 9.1248416342e+01 0.0000e+00 0.0000e+00
      -11  1    3    3    0    0 -2.6223007261e+00 -3.5519240559e+01 +4.0098715515e+01 5.3632078991e+01 0.0000000000e+00 0.0000e+00 1.0000e+00
       11  1    3    3    0    0 +2.6223007261e+00 +3.5519240559e+01 +2.0151224775e+02 2.0463547812e+02 0.0000000000e+00 0.0000e+00 -1.0000e+00
<mgrwt>
<rscale>  0 0.91248416E+02</rscale>
<asrwt>0</asrwt>
<pdfrwt beam="1">  1        1 0.38452188E-01 0.91248416E+02</pdfrwt>
<pdfrwt beam="2">  1       -1 0.12812766E-02 0.91248416E+02</pdfrwt>
<totfact> 0.12340496E+05</totfact>
</mgrwt>
</event>
<event>
 4      1 +1.6944000e+03 3.16851100e+01 7.81860800e-03 1.58017600e-01
        1 -1    0    0  501    0 +0.0000000000e+00 +0.0000000000e+00 +3.4682684519e+00 3.4682684519e+00 0.0000000000e+00 0.0000e+00 1.0000e+00
       -1 -1    0    0    0  501 -0.0000000000e+00 -0.0000000000e+00 -7.2366516474e+01 7.2366516474e+01 0.0000000000e+00 0.0000e+00 -1.0000e+00
      -11  1    1    2    0    0 +6.9500928440e+00 +1.1277175251e+01 -5.5246562969e+01 5.6812509117e+01 0.0000000000e+00 0.0000e+00 -1.0000e+00
       11  1    1    2    0    0 -6.9500928440e+00 -1.1277175251e+01 -1.3651685052e+01 1.9022275809e+01 0.0000000000e+00 0.0000e+00 1.0000e+00
<mgrwt>
<rscale>  0 0.31685107E+02</rscale>
<asrwt>0</asrwt>
<pdfrwt beam="1">  1        1 0.53357976E-03 0.31685107E+02</pdfrwt>
<pdfrwt beam="2">  1       -1 0.11133310E-01 0.31685107E+02</pdfrwt>
<totfact> 0.11738752E+06</totfact>
</mgrwt>
</event>
<event>
 4      1 +1.6944000e+03 2.18304400e+01 7.81860800e-03 1.71120100e-01
        2 -1    0    0  501    0 +0.0000000000e+00 +0.0000000000e+00 +1.2456099690e+01 1.2456099690e+01 0.0000000000e+00 0.0000e+00 1.0000e+00
       -2 -1    0    0    0  501 -0.0000000000e+00 -0.0000000000e+00 -9.5649509840e+00 9.5649509840e+00 0.0000000000e+00 0.0000e+00 -1.0000e+00
      -13  1    1    2    0    0 -7.0983546417e+00 +8.1633118344e+00 +2.9128140084e+00 1.1203159562e+01 0.0000000000e+00 0.0000e+00 1.0000e+00
       13  1    1    2    0    0 +7.0983546417e+00 -8.1633118344e+00 -2.1665302371e-02 1.0817891112e+01 0.0000000000e+00 0.0000e+00 -1.0000e+00
<mgrwt>
<rscale>  0 0.21830436E+02</rscale>
<asrwt>0</asrwt>
<pdfrwt beam="1">  1        2 0.19163230E-02 0.21830436E+02</pdfrwt>
<pdfrwt beam="2">  1       -2 0.14715309E-02 0.21830436E+02</pdfrwt>
<totfact> 0.32805511E+06</totfact>
</mgrwt>
</event>
<event>
 5      1 +1.6944000e+03 8.69440800e+01 7.81860800e-03 1.31042500e-01
        1 -1    0    0  501    0 +0.0000000000e+00 +0.0000000000e+00 +4.9390080632e+01 4.9390080632e+01 0.0000000000e+00 0.0000e+00 -1.0000e+00
       -1 -1    0    0    0  501 -0.0000000000e+00 -0.0000000000e+00 -3.8263110983e+01 3.8263110983e+01 0.0000000000e+00 0.0000e+00 1.0000e+00
       23  2    1    2    0    0 +0.0000000000e+00 +0.0000000000e+00 +1.1126969649e+01 8.7653191615e+01 8.6944077122e+01 0.0000e+00 0.0000e+00
      -13  1    3    3    0    0 -1.6348119716e+01 -1.5769520864e+01 +4.2931671776e+01 4.8570230060e+01 0.0000000000e+00 0.0000e+00 -1.0000e+00
       13  1    3    3    0    0 +1.6348119716e+01 +1.5769520864e+01 -3.1804702127e+01 3.9082961555e+01 0.0000000000e+00 0.0000e+00 1.0000e+00
<mgrwt>
<rscale>  0 0.86944077E+02</rscale>
<asrwt>0</asrwt>
<pdfrwt beam="1">  1        1 0.75984739E-02 0.86944077E+02</pdfrwt>
<pdfrwt beam="2">  1       -1 0.58866325E-02 0.86944077E+02</pdfrwt>
<totfact> 0.10683262E+05</totfact>
</mgrwt>
</event>
<event>
 4      1 +1.6944000e+03 2.55500500e+01 7.81860800e-03 1.65322500e-01
       -2 -1    0    0    0  501 -0.0000000000e+00 +0.0000000000e+00 +5.3516418402e+00 5.3516418402e+00 0.0000000000e+00 0.0000e+00 -1.0000e+00
        2 -1    0    0  501    0 +0.0000000000e+00 -0.0000000000e+00 -3.0495543697e+01 3.0495543697e+01 0.0000000000e+00 0.0000e+00 1.0000e+00
      -11  1    1    2    0    0 +1.0582715094e+01 +4.9156253283e+00 -5.2757162777e+00 1.2805874174e+01 0.0000000000e+00 0.0000e+00 1.0000e+00
       11  1    1    2    0    0 -1.0582715094e+01 -4.9156253283e+00 -1.9868185579e+01 2.3041311363e+01 0.0000000000e+00 0.0000e+00 -1.0000e+00
<mgrwt>
<rscale>  0 0.25550047E+02</rscale>
<asrwt>0</asrwt>
<pdfrwt beam="2">  1        2 0.46916220E-02 0.25550047E+02</pdfrwt>
<pdfrwt beam="1">  1       -2 0.82332952E-03 0.25550047E+02</pdfrwt>
<totfact> 0.24787738E+06</totfact>
</mgrwt>
</event>
<event>
 5      1 +1.6944000e+03 9.08177800e+01 7.81860800e-03 1.30088300e-01
       -2 -1    0    0    0  501 -0.0000000000e+00 +0.0000000000e+00 +5.1399173804e+01 5.1399173804e+01 0.0000000000e+00 0.0000e+00 1.0000e+00
        2 -1    0    0  501    0 +0.0000000000e+00 -0.0000000000e+00 -4.0116742268e+01 4.0116742268e+01 0.0000000000e+00 0.0000e+00 -1.0000e+00
       23  2    1    2    0    0 +0.0000000000e+00 +0.0000000000e+00 +1.1282431537e+01 9.1515916072e+01 9.0817782582e+01 0.0000e+00 0.0000e+00
      -13  1    3    3    0    0 +8.1100922171e+00 +4.4493884167e+01 +9.7329822120e+00 4.6262406625e+01 0.0000000000e+00 0.0000e+00 -1.0000e+00
       13  1    3    3    0    0 -8.1100922171e+00 -4.4493884167e+01 +1.5494493249e+00 4.5253509447e+01 0.0000000000e+00 0.0000e+00 1.0000e+00
<mgrwt>
<rscale>  0 0.90817783E+02</rscale>
<asrwt>0</asrwt>
<pdfrwt beam="2">  1        2 0.61718065E-02 0.90817783E+02</pdfrwt>
<pdfrwt beam="1">  1       -2 0.79075652E-02 0.90817783E+02</pdfrwt>
<totfact> 0.96556830E+04</totfact>
</mgrwt>
</event>
<event>
 5      1 +1.6944000e+03 9.00353500e+01 7.81860800e-03 1.30276600e-01
        3 -1    0    0  501    0 +0.0000000000e+00 +0.0000000000e+00 +1.4645079556e+02 1.4645079556e+02 0.0000000000e+00 0.0000e+00 -1.0000e+00
       -3 -1    0    0    0  501 -0.0000000000e+00 -0.0000000000e+00 -1.3838032751e+01 1.3838032751e+01 0.0000000000e+00 0.0000e+00 1.0000e+00
       23  2    1    2    0    0 +0.0000000000e+00 +0.0000000000e+00 +1.3261276280e+02 1.6028882831e+02 9.0035346511e+01 0.0000e+00 0.0000e+00
      -11  1    3    3    0    0 -8.0913563328e+00 -2.9943781101e+01 +8.2217581868e+00 3.2088898105e+01 0.0000000000e+00 0.0000e+00 1.0000e+00
       11  1    3    3    0    0 +8.0913563328e+00 +2.9943781101e+01 +1.2439100462e+02 1.2819993020e+02 0.0000000000e+00 0.0000e+00 -1.0000e+00
<mgrwt>
<rscale>  0 0.90035347E+02</rscale>
<asrwt>0</asrwt>
<pdfrwt beam="1">  1        3 0.22530891E-01 0.90035347E+02</pdfrwt>
<pdfrwt beam="2">  1       -3 0.21289282E-02 0.90035347E+02</pdfrwt>
<totfact> 0.31751305E+04</totfact>
</mgrwt>
</event>
<event>
 5      1 +1.6944000e+03 9.08494600e+01 7.81860800e-03 1.30080800e-01
        2 -1    0    0  501    0 +0.0000000000e+00 +0.0000000000e+00 +1.9178118287e+01 1.9178118287e+01 0.0000000000e+00 0.0000e+00 1.0000e+00
       -2 -1    0    0    0  501 -0.0000000000e+00 -0.0000000000e+00 -1.0759168821e+02 1.0759168821e+02 0.0000000000e+00 0.0000e+00 -1.0000e+00
       23  2    1    2    0    0 +0.0000000000e+00 +0.0000000000e+00 -8.8413569922e+01 1.2676980650e+02 9.0849460607e+01 0.0000e+00 0.0000e+00
      -13  1    3    3    0    0 +2.3974817765e+01 -3.3712094598e+01 -1.8023026611e+01 4.5123460608e+01 0.0000000000e+00 0.0000e+00 1.0000e+00
       13  1    3    3    0    0 -2.3974817765e+01 +3.3712094598e+01 -7.0390543312e+01 8.1646345887e+01 0.0000000000e+00 0.0000e+00 -1.0000e+00
<mgrwt>
<rscale>  0 0.90849461E+02</rscale>
<asrwt>0</asrwt>
<pdfrwt beam="1">  1        2 0.29504797E-02 0.90849461E+02</pdfrwt>
<pdfrwt beam="2">  1       -2 0.16552568E-01 0.90849461E+02</pdfrwt>
<totfact> 0.78761445E+04</totfact>
</mgrwt>
</event>
<event>
 5      1 +1.6944000e+03 9.02130500e+01 7.81860800e-03 1.30233700e-01
        2 -1    0    0  501    0 +0.0000000000e+00 +0.0000000000e+00 +4.2625080253e+01 4.2625080253e+01 0.0000000000e+00 0.0000e+00 -1.0000e+00
       -2 -1    0    0    0  501 -0.0000000000e+00 -0.0000000000e+00 -4.7732429602e+01 4.7732429602e+01 0.0000000000e+00 0.0000e+00 1.0000e+00
       23  2    1    2    0    0 +0.0000000000e+00 +0.0000000000e+00 -5.1073493486e+00 9.0357509855e+01 9.0213050995e+01 0.0000e+00 0.0000e+00
      -13  1    3    3    0    0 -1.4563472201e+01 +1.0717385969e+01 +3.8836117015e+01 4.2839246834e+01 0.0000000000e+00 0.0000e+00 -1.0000e+00
       13  1    3    3    0    0 +1.4563472201e+01 -1.0717385969e+01 -4.3943466363e+01 4.7518263021e+01 0.0000000000e+00 0.0000e+00 1.0000e+00
<mgrwt>
<rscale>  0 0.90213051E+02</rscale>
<asrwt>0</asrwt>
<pdfrwt beam="1">  1        2 0.65577047E-02 0.90213051E+02</pdfrwt>
<pdfrwt beam="2">  1       -2 0.73434507E-02 0.90213051E+02</pdfrwt>
<totfact> 0.99982251E+04</totfact>
</mgrwt>
</event>
<event>
 5      1 +1.6944000e+03 8.83208700e+01 7.81860800e-03 1.30697000e-01
        1 -1    0    0  501    0 +0.0000000000e+00 +0.0000000000e+00 +4.0292286501e+01 4.0292286501e+01 0.0000000000e+00 0.0000e+00 -1.0000e+00
       -1 -1    0    0    0  501 -0.0000000000e+00 -0.0000000000e+00 -4.8399936209e+01 4.8399936209e+01 0.0000000000e+00 0.0000e+00 1.0000e+00
       23  2    1    2    0    0 +0.0000000000e+00 +0.0000000000e+00 -8.1076497079e+00 8.8692222710e+01 8.8320871744e+01 0.0000e+00 0.0000e+00
      -11  1    3    3    0    0 +1.8385552186e+01 +1.9821861954e+00 -4.4324637970e+01 4.8027399705e+01 0.0000000000e+00 0.0000e+00 1.0000e+00
       11  1    3    3    0    0 -1.8385552186e+01 -1.9821861954e+00 +3.6216988262e+01 4.0664823005e+01 0.0000000000e+00 0.0000e+00 -1.0000e+00
<mgrwt>
<rscale>  0 0.88320872E+02</rscale>
<asrwt>0</asrwt>
<pdfrwt beam="1">  1        1 0.61988134E-02 0.88320872E+02</pdfrwt>
<pdfrwt beam="2">  1       -1 0.74461440E-02 0.88320872E+02</pdfrwt>
<totfact> 0.99266365E+04</totfact>
</mgrwt>
</event>
<event>
 4      1 +1.6944000e+03 2.92162900e+01 7.81860800e-03 1.60691700e-01
        2 -1    0    0  501    0 +0.0000000000e+00 +0.0000000000e+00 +8.1813796992e+01 8.1813796992e+01 0.0000000000e+00 0.0000e+00 -1.0000e+00
       -2 -1    0    0    0  501 -0.0000000000e+00 -0.0000000000e+00 -2.6083368194e+00 2.6083368194e+00 0.0000000000e+00 0.0000e+00 1.0000e+00
      -13  1    1    2    0    0 +1.1030714470e+01 +4.6033790066e+00 +1.5335583582e+01 1.9443453494e+01 0.0000000000e+00 0.0000e+00 1.0000e+00
       13  1    1    2    0    0 -1.1030714470e+01 -4.6033790066e+00 +6.3869876591e+01 6.4978680317e+01 0.0000000000e+00 0.0000e+00 -1.0000e+00
<mgrwt>
<rscale>  0 0.29216293E+02</rscale>
<asrwt>0</asrwt>
<pdfrwt beam="1">  1        2 0.12586736E-01 0.29216293E+02</pdfrwt>
<pdfrwt beam="2">  1       -2 0.40128265E-03 0.29216293E+02</pdfrwt>
<totfact> 0.21245629E+06</totfact>
</mgrwt>
</event>
<event>
 5      1 +1.6944000e+03 9.64640900e+01 7.81860800e-03 1.28791200e-01
       -1 -1    0    0    0  501 -0.0000000000e+00 +0.0000000000e+00 +4.7695434510e+01 4.7695434510e+01 0.0000000000e+00 0.0000e+00 1.0000e+00
        1 -1    0    0  501    0 +0.0000000000e+00 -0.0000000000e+00 -4.8774694091e+01 4.8774694091e+01 0.0000000000e+00 0.0000e+00 -1.0000e+00
       23  2    1    2    0    0 +0.0000000000e+00 +0.0000000000e+00 -1.0792595808e+00 9.6470128600e+01 9.6464091303e+01 0.0000e+00 0.0000e+00
      -13  1    3    3    0    0 +4.5397098585e+01 +1.3055078079e+01 -1.0286962535e+01 4.8344112587e+01 0.0000000000e+00 0.0000e+00 -1.0000e+00
       13  1    3    3    0    0 -4.5397098585e+01 -1.3055078079e+01 +9.2077029545e+00 4.8126016013e+01 0.0000000000e+00 0.0000e+00 1.0000e+00
<mgrwt>
<rscale>  0 0.96464091E+02</rscale>
<asrwt>0</asrwt>
<pdfrwt beam="2">  1        1 0.75037991E-02 0.96464091E+02</pdfrwt>
<pdfrwt beam="1">  1       -1 0.73377592E-02 0.96464091E+02</pdfrwt>
<totfact> 0.79715521E+04</totfact>
</mgrwt>
</event>
<event>
 5      1 +1.6944000e+03 9.18710900e+01 7.81860800e-03 1.29838300e-01
        1 -1    0    0  501    0 +0.0000000000e+00 +0.0000000000e+00 +5.2295574019e+01 5.2295574019e+01 0.0000000000e+00 0.0000e+00 -1.0000e+00
       -1 -1    0    0    0  501 -0.0000000000e+00 -0.0000000000e+00 -4.0349005488e+01 4.0349005488e+01 0.0000000000e+00 0.0000e+00 1.0000e+00
       23  2    1    2    0    0 +0.0000000000e+00 +0.0000000000e+00 +1.1946568531e+01 9.2644579507e+01 9.1871092365e+01 0.0000e+00 0.0000e+00
      -11  1    3    3    0    0 -3.5031936609e+00 +3.0346729727e+01 -2.8621200148e+01 4.1861312316e+01 0.0000000000e+00 0.0000e+00 1.0000e+00
       11  1    3    3    0    0 +3.5031936609e+00 -3.0346729727e+01 +4.0567768679e+01 5.0783267190e+01 0.0000000000e+00 0.0000e+00 -1.0000e+00
<mgrwt>
<rscale>  0 0.91871092E+02</rscale>
<asrwt>0</asrwt>
<pdfrwt beam="1">  1        1 0.80454729E-02 0.91871092E+02</pdfrwt>
<pdfrwt beam="2">  1       -1 0.62075394E-02 0.91871092E+02</pdfrwt>
<totfact> 0.92418140E+04</totfact>
</mgrwt>
</event>
<event>
 5      1 +1.6944000e+03 9.05905900e+01 7.81860800e-03 1.30142800e-01
       -1 -1    0    0    0  501 -0.0000000000e+00 +0.0000000000e+00 +7.7117510055e+00 7.7117510055e+00 0.0000000000e+00 0.0000e+00 1.0000e+00
        1 -1    0    0  501    0 +0.0000000000e+00 -0.0000000000e+00 -2.6604383067e+02 2.6604383067e+02 0.0000000000e+00 0.0000e+00 -1.0000e+00
       23  2    1    2    0    0 +0.0000000000e+00 +0.0000000000e+00 -2.5833207966e+02 2.7375558167e+02 9.0590590652e+01 0.0000e+00 0.0000e+00
      -11  1    3    3    0    0 -4.5213069584e+01 +2.1409222036e+00 -1.3427525598e+02 1.4169915164e+02 0.0000000000e+00 0.0000e+00 1.0000e+00
       11  1    3    3    0    0 +4.5213069584e+01 -2.1409222036e+00 -1.2405682369e+02 1.3205643003e+02 0.0000000000e+00 0.0000e+00 -1.0000e+00
<mgrwt>
<rscale>  0 0.90590591E+02</rscale>
<asrwt>0</asrwt>
<pdfrwt beam="2">  1        1 0.40929821E-01 0.90590591E+02</pdfrwt>
<pdfrwt beam="1">  1       -1 0.11864232E-02 0.90590591E+02</pdfrwt>
<totfact> 0.12735350E+05</totfact>
</mgrwt>
</event>
<event>
 5      1 +1.6944000e+03 8.96190400e+01 7.81860800e-03 1.30377700e-01
       -2 -1    0    0    0  501 -0.0000000000e+00 +0.0000000000e+00 +1.1511186306e+01 1.1511186306e+01 0.0000000000e+00 0.0000e+00 1.0000e+00
        2 -1    0    0  501    0 +0.0000000000e+00 -0.0000000000e+00 -1.7442972429e+02 1.7442972429e+02 0.0000000000e+00 0.0000e+00 -1.0000e+00
       23  2    1    2    0    0 +0.0000000000e+00 +0.0000000000e+00 -1.6291853799e+02 1.8594091060e+02 8.9619039353e+01 0.0000e+00 0.0000e+00
      -11  1    3    3    0    0 +4.4166813282e+01 +1.4490542606e-01 -6.5772320025e+01 7.9225794250e+01 0.0000000000e+00 0.0000e+00 -1.0000e+00
       11  1    3    3    0    0 -4.4166813282e+01 -1.4490542606e-01 -9.7146217960e+01 1.0671511635e+02 0.0000000000e+00 0.0000e+00 1.0000e+00
<mgrwt>
<rscale>  0 0.89619039E+02</rscale>
<asrwt>0</asrwt>
<pdfrwt beam="2">  1        2 0.26835342E-01 0.89619039E+02</pdfrwt>
<pdfrwt beam="1">  1       -2 0.17709517E-02 0.89619039E+02</pdfrwt>
<totfact> 0.15430965E+05</totfact>
</mgrwt>
</event>
<event>
 5      1 +1.6944000e+03 9.15645900e+01 7.81860800e-03 1.29910600e-01
        2 -1    0    0  501    0 +0.0000000000e+00 +0.0000000000e+00 +2.3669673565e+01 2.3669673565e+01 0.0000000000e+00 0.0000e+00 1.0000e+00
       -2 -1    0    0    0  501 -0.0000000000e+00 -0.0000000000e+00 -8.8552920097e+01 8.8552920097e+01 0.0000000000e+00 0.0000e+00 -1.0000e+00
       23  2    1    2    0    0 +0.0000000000e+00 +0.0000000000e+00 -6.4883246532e+01 1.1222259366e+02 9.1564593854e+01 0.0000e+00 0.0000e+00
      -13  1    3    3    0    0 -3.3714119488e+00 -4.5623837210e+01 -3.4605711074e+01 5.7362498021e+01 0.0000000000e+00 0.0000e+00 1.0000e+00
       13  1    3    3    0    0 +3.3714119488e+00 +4.5623837210e+01 -3.0277535458e+01 5.4860095641e+01 0.0000000000e+00 0.0000e+00 -1.0000e+00
<mgrwt>
<rscale>  0 0.91564594E+02</rscale>
<asrwt>0</asrwt>
<pdfrwt beam="1">  1        2 0.36414883E-02 0.91564594E+02</pdfrwt>
<pdfrwt beam="2">  1       -2 0.13623526E-01 0.91564594E+02</pdfrwt>
<totfact> 0.81823497E+04</totfact>
</mgrwt>
</event>
<event>
 4      1 +1.6944000e+03 2.67123100e+01 7.81860800e-03 1.63755900e-01
        2 -1    0    0  501    0 +0.0000000000e+00 +0.0000000000e+00 +1.9824958834e+01 1.9824958834e+01 0.0000000000e+00 0.0000e+00 -1.0000e+00
       -2 -1    0    0    0  501 -0.0000000000e+00 -0.0000000000e+00 -8.9980975847e+00 8.9980975847e+00 0.0000000000e+00 0.0000e+00 1.0000e+00
      -13  1    1    2    0    0 -4.0854915650e+00 -1.0242153344e+01 -2.7182374880e+00 1.1357013757e+01 0.0000000000e+00 0.0000e+00 1.0000e+00
       13  1    1    2    0    0 +4.0854915650e+00 +1.0242153344e+01 +1.3545098738e+01 1.7466042662e+01 0.0000000000e+00 0.0000e+00 -1.0000e+00
<mgrwt>
<rscale>  0 0.26712313E+02</rscale>
<asrwt>0</asrwt>
<pdfrwt beam="1">  1        2 0.30499937E-02 0.26712313E+02</pdfrwt>
<pdfrwt beam="2">  1       -2 0.13843227E-02 0.26712313E+02</pdfrwt>
<totfact> 0.21298999E+06</totfact>
</mgrwt>
</event>
<event>
 5      1 +1.6944000e+03 9.13863900e+01 7.81860800e-03 1.29952900e-01
       -1 -1    0    0    0  501 -0.0000000000e+00 +0.0000000000e+00 +7.8478492412e+01 7.8478492412e+01 0.0000000000e+00 0.0000e+00 1.0000e+00
        1 -1    0    0  501    0 +0.0000000000e+00 -0.0000000000e+00 -2.6604332987e+01 2.6604332987e+01 0.0000000000e+00 0.0000e+00 -1.0000e+00
       23  2    1    2    0    0 +0.0000000000e+00 +0.0000000000e+00 +5.1874159425e+01 1.0508282540e+02 9.1386387267e+01 0.0000e+00 0.0000e+00
      -13  1    3    3    0    0 -1.9775907185e+01 +2.7418800355e+01 +6.1285013165e+01 6.9990927673e+01 0.0000000000e+00 0.0000e+00 1.0000e+00
       13  1    3    3    0    0 +1.9775907185e+01 -2.7418800355e+01 -9.4108537399e+00 3.5091897726e+01 0.0000000000e+00 0.0000e+00 -1.0000e+00
<mgrwt>
<rscale>  0 0.91386387E+02</rscale>
<asrwt>0</asrwt>
<pdfrwt beam="2">  1        1 0.40929743E-02 0.91386387E+02</pdfrwt>
<pdfrwt beam="1">  1       -1 0.12073614E-01 0.91386387E+02</pdfrwt>
<totfact> 0.84427107E+04</totfact>
</mgrwt>
</event>
<event>
 5      1 +1.6944000e+03 9.11992900e+01 7.81860800e-03 1.29997300e-01
       -4 -1    0    0    0  501 -0.0000000000e+00 +0.0000000000e+00 +2.3129402385e+02 2.3129402385e+02 0.0000000000e+00 0.0000e+00 1.0000e+00
        4 -1    0    0  501    0 +0.0000000000e+00 -0.0000000000e+00 -8.9899751844e+00 8.9899751844e+00 0.0000000000e+00 0.0000e+00 -1.0000e+00
       23  2    1    2    0    0 +0.0000000000e+00 +0.0000000000e+00 +2.2230404867e+02 2.4028399904e+02 9.1199288040e+01 0.0000e+00 0.0000e+00
      -13  1    3    3    0    0 -4.2414770520e+01 -1.5959994096e+01 +1.2448100991e+02 1.3247360491e+02 0.0000000000e+00 0.0000e+00 -1.0000e+00
       13  1    3    3    0    0 +4.2414770520e+01 +1.5959994096e+01 +9.7823038755e+01 1.0781039412e+02 0.0000000000e+00 0.0000e+00 1.0000e+00
<mgrwt>
<rscale>  0 0.91199288E+02</rscale>
<asrwt>0</asrwt>
<pdfrwt beam="2">  1        4 0.13830733E-02 0.91199288E+02</pdfrwt>
<pdfrwt beam="1">  1       -4 0.35583692E-01 0.91199288E+02</pdfrwt>
<totfact> 0.19800209E+04</totfact>
</mgrwt>
</event>
<event>
 5      1 +1.6944000e+03 7.26920100e+01 7.81860800e-03 1.35117100e-01
       -1 -1    0    0    0  501 -0.0000000000e+00 +0.0000000000e+00 +1.8958662356e+01 1.8958662356e+01 0.0000000000e+00 0.0000e+00 1.0000e+00
        1 -1    0    0  501    0 +0.0000000000e+00 -0.0000000000e+00 -6.9679610153e+01 6.9679610153e+01 0.0000000000e+00 0.0000e+00 -1.0000e+00
       23  2    1    2    0    0 +0.0000000000e+00 +0.0000000000e+00 -5.0720947796e+01 8.8638272509e+01 7.2692013371e+01 0.0000e+00 0.0000e+00
      -13  1    3    3    0    0 -7.0096815112e+00 -3.1170517975e+01 -4.2300160050e+00 3.2227780891e+01 0.0000000000e+00 0.0000e+00 -1.0000e+00
       13  1    3    3    0    0 +7.0096815112e+00 +3.1170517975e+01 -4.6490931791e+01 5.6410491618e+01 0.0000000000e+00 0.0000e+00 1.0000e+00
<mgrwt>
<rscale>  0 0.72692013E+02</rscale>
<asrwt>0</asrwt>
<pdfrwt beam="2">  1        1 0.10719940E-01 0.72692013E+02</pdfrwt>
<pdfrwt beam="1">  1       -1 0.29167173E-02 0.72692013E+02</pdfrwt>
<totfact> 0.18231593E+05</totfact>
</mgrwt>
</event>
<event>
 5      1 +1.6944000e+03 9.05243300e+01 7.81860800e-03 1.30158700e-01
       -1 -1    0    0    0  501 -0.0000000000e+00 +0.0000000000e+00 +5.6456151084e+01 5.6456151084e+01 0.0000000000e+00 0.0000e+00 1.0000e+00
        1 -1    0    0  501    0 +0.0000000000e+00 -0.0000000000e+00 -3.6287695052e+01 3.6287695052e+01 0.0000000000e+00 0.0000e+00 -1.0000e+00
       23  2    1    2    0    0 +0.0000000000e+00 +0.0000000000e+00 +2.0168456032e+01 9.2743846135e+01 9.0524330306e+01 0.0000e+00 0.0000e+00
      -11  1    3    3    0    0 -2.1044856222e+01 -9.3196094452e+00 +5.0013150408e+01 5.5055029810e+01 0.0000000000e+00 0.0000e+00 1.0000e+00
       11  1    3    3    0    0 +2.1044856222e+01 +9.3196094452e+00 -2.9844694376e+01 3.7688816326e+01 0.0000000000e+00 0.0000e+00 -1.0000e+00
<mgrwt>
<rscale>  0 0.90524330E+02</rscale>
<asrwt>0</asrwt>
<pdfrwt beam="2">  1        1 0.55827223E-02 0.90524330E+02</pdfrwt>
<pdfrwt beam="1">  1       -1 0.86855617E-02 0.90524330E+02</pdfrwt>
<totfact> 0.91160204E+04</totfact>
</mgrwt>
</event>
<event>
 5      1 +1.6944000e+03 9.06093400e+01 7.81860800e-03 1.30138300e-01
        2 -1    0    0  501    0 +0.0000000000e+00 +0.0000000000e+00 +1.0547411396e+02 1.0547411396e+02 0.0000000000e+00 0.0000e+00 -1.0000e+00
       -2 -1    0    0    0  501 -0.0000000000e+00 -0.0000000000e+00 -1.9459873631e+01 1.9459873631e+01 0.0000000000e+00 0.0000e+00 1.0000e+00
       23  2    1    2    0    0 +0.0000000000e+00 +0.0000000000e+00 +8.6014240333e+01 1.2493398760e+02 9.0609335702e+01 0.0000e+00 0.0000e+00
      -13  1    3    3    0    0 -3.2586974514e+01 +2.2907461851e+01 +1.3247265602e+01 4.1978003315e+01 0.0000000000e+00 0.0000e+00 1.0000e+00
       13  1    3    3    0    0 +3.2586974514e+01 -2.2907461851e+01 +7.2766974730e+01 8.2955984280e+01 0.0000000000e+00 0.0000e+00 -1.0000e+00
<mgrwt>
<rscale>  0 0.90609336E+02</rscale>
<asrwt>0</asrwt>
<pdfrwt beam="1">  1        2 0.16226786E-01 0.90609336E+02</pdfrwt>
<pdfrwt beam="2">  1       -2 0.29938268E-02 0.90609336E+02</pdfrwt>
<totfact> 0.12685392E+05</totfact>
</mgrwt>
</event>
<event>
 5      1 +1.6944000e+03 8.65148000e+01 7.81860800e-03 1.31151800e-01
        3 -1    0    0  501    0 +0.0000000000e+00 +0.0000000000e+00 +2.1227518990e+01 2.1227518990e+01 0.0000000000e+00 0.0000e+00 -1.0000e+00
       -3 -1    0    0    0  501 -0.0000000000e+00 -0.0000000000e+00 -8.8149858032e+01 8.8149858032e+01 0.0000000000e+00 0.0000e+00 1.0000e+00
       23  2    1    2    0    0 +0.0000000000e+00 +0.0000000000e+00 -6.6922339042e+01 1.0937737702e+02 8.6514803019e+01 0.0000e+00 0.0000e+00
      -13  1    3    3    0    0 -3.3866876396e+01 +2.2655907327e+01 -1.5098995489e+01 4.3453827431e+01 0.0000000000e+00 0.0000e+00 -1.0000e+00
       13  1    3    3    0    0 +3.3866876396e+01 -2.2655907327e+01 -5.1823343553e+01 6.5923549591e+01 0.0000000000e+00 0.0000e+00 1.0000e+00
<mgrwt>
<rscale>  0 0.86514803E+02</rscale>
<asrwt>0</asrwt>
<pdfrwt beam="1">  1        3 0.32657722E-02 0.86514803E+02</pdfrwt>
<pdfrwt beam="2">  1       -3 0.13561516E-01 0.86514803E+02</pdfrwt>
<totfact> 0.39178757E+04</totfact>
</mgrwt>
</event>
<event>
 4      1 +1.6944000e+03 2.74500200e+01 7.81860800e-03 1.62811600e-01
       -2 -1    0    0    0  501 -0.0000000000e+00 +0.0000000000e+00 +4.3603553418e+00 4.3603553418e+00 0.0000000000e+00 0.0000e+00 1.0000e+00
        2 -1    0    0  501    0 +0.0000000000e+00 -0.0000000000e+00 -4.3201976153e+01 4.3201976153e+01 0.0000000000e+00 0.0000e+00 -1.0000e+00
      -11  1    1    2    0    0 -6.4553127652e+00 -1.1586604556e+01 -2.5535873823e+01 2.8775012076e+01 0.0000000000e+00 0.0000e+00 -1.0000e+00
       11  1    1    2    0    0 +6.4553127652e+00 +1.1586604556e+01 -1.3305746988e+01 1.8787319419e+01 0.0000000000e+00 0.0000e+00 1.0000e+00
<mgrwt>
<rscale>  0 0.27450025E+02</rscale>
<asrwt>0</asrwt>
<pdfrwt beam="2">  1        2 0.66464579E-02 0.27450025E+02</pdfrwt>
<pdfrwt beam="1">  1       -2 0.67082390E-03 0.27450025E+02</pdfrwt>
<totfact> 0.21935526E+06</totfact>
</mgrwt>
</event>
<event>
 5      1 +1.6944000e+03 9.56247400e+01 7.81860800e-03 1.28977500e-01
       -1 -1    0    0    0  501 -0.0000000000e+00 +0.0000000000e+00 +6.2889530567e+00 6.2889530567e+00 0.0000000000e+00 0.0000e+00 1.0000e+00
        1 -1    0    0  501    0 +0.0000000000e+00 -0.0000000000e+00 -3.6349815566e+02 3.6349815566e+02 0.0000000000e+00 0.0000e+00 -1.0000e+00
       23  2    1    2    0    0 +0.0000000000e+00 +0.0000000000e+00 -3.5720920260e+02 3.6978710872e+02 9.5624742345e+01 0.0000e+00 0.0000e+00
      -13  1    3    3    0    0 -3.7028651374e+01 +2.4942312461e+01 -2.4477356243e+02 2.4881185027e+02 0.0000000000e+00 0.0000e+00 -1.0000e+00
       13  1    3    3    0    0 +3.7028651374e+01 -2.4942312461e+01 -1.1243564018e+02 1.2097525845e+02 0.0000000000e+00 0.0000e+00 1.0000e+00
<mgrwt>
<rscale>  0 0.95624742E+02</rscale>
<asrwt>0</asrwt>
<pdfrwt beam="2">  1        1 0.55922812E-01 0.95624742E+02</pdfrwt>
<pdfrwt beam="1">  1       -1 0.96753091E-03 0.95624742E+02</pdfrwt>
<totfact> 0.11689154E+05</totfact>
</mgrwt>
</event>
<event>
 4      1 +1.6944000e+03 9.02861000e+01 7.81860800e-03 1.30216000e-01
        1 -1    0    0  501    0 +0.0000000000e+00 +0.0000000000e+00 +3.7413290253e+01 3.7413290253e+01 0.0000000000e+00 0.0000e+00 -1.0000e+00
       -1 -1    0    0    0  501 -0.0000000000e+00 -0.0000000000e+00 -5.4469809129e+01 5.4469809129e+01 0.0000000000e+00 0.0000e+00 1.0000e+00
      -13  1    1    2    0    0 +2.7172032112e+01 +3.1618675969e+01 -2.6150282544e+01 4.9212775539e+01 0.0000000000e+00 0.0000e+00 1.0000e+00
       13  1    1    2    0    0 -2.7172032112e+01 -3.1618675969e+01 +9.0937636682e+00 4.2670323842e+01 0.0000000000e+00 0.0000e+00 -1.0000e+00
<mgrwt>
<rscale>  0 0.90286096E+02</rscale>
<asrwt>0</asrwt>
<pdfrwt beam="1">  1        1 0.57558908E-02 0.90286096E+02</pdfrwt>
<pdfrwt beam="2">  1       -1 0.83799706E-02 0.90286096E+02</pdfrwt>
<totfact> 0.92271437E+04</totfact>
</mgrwt>
</event>
<event>
 5      1 +1.6944000e+03 9.05329300e+01 7.81860800e-03 1.30156600e-01
        1 -1    0    0  501    0 +0.0000000000e+00 +0.0000000000e+00 +1.1748756704e+02 1.1748756704e+02 0.0000000000e+00 0.0000e+00 -1.0000e+00
       -1 -1    0    0    0  501 -0.0000000000e+00 -0.0000000000e+00 -1.7440591665e+01 1.7440591665e+01 0.0000000000e+00 0.0000e+00 1.0000e+00
       23  2    1    2    0    0 +0.0000000000e+00 +0.0000000000e+00 +1.0004697537e+02 1.3492815871e+02 9.0532926220e+01 0.0000e+00 0.0000e+00
      -11  1    3    3    0    0 +1.6851004644e+01 -1.4082567127e+01 +1.0901638372e+02 1.1120632614e+02 0.0000000000e+00 0.0000e+00 -1.0000e+00
       11  1    3    3    0    0 -1.6851004644e+01 +1.4082567127e+01 -8.9694083411e+00 2.3721832568e+01 0.0000000000e+00 0.0000e+00 1.0000e+00
<mgrwt>
<rscale>  0 0.90532926E+02</rscale>
<asrwt>0</asrwt>
<pdfrwt beam="1">  1        1 0.18075010E-01 0.90532926E+02</pdfrwt>
<pdfrwt beam="2">  1       -1 0.26831680E-02 0.90532926E+02</pdfrwt>
<totfact> 0.10942688E+05</totfact>
</mgrwt>
</event>
<event>
 5      1 +1.6944000e+03 9.16832000e+01 7.81860800e-03 1.29882600e-01
       -1 -1    0    0    0  501 -0.0000000000e+00 +0.0000000000e+00 +1.5730836707e+02 1.5730836707e+02 0.0000000000e+00 0.0000e+00 1.0000e+00
        1 -1    0    0  501    0 +0.0000000000e+00 -0.0000000000e+00 -1.3358808075e+01 1.3358808075e+01 0.0000000000e+00 0.0000e+00 -1.0000e+00
       23  2    1    2    0    0 +0.0000000000e+00 +0.0000000000e+00 +1.4394955899e+02 1.7066717514e+02 9.1683199860e+01 0.0000e+00 0.0000e+00
      -11  1    3    3    0    0 +2.3247667507e+01 +3.4735919205e+01 +1.0701894868e+02 1.1489165985e+02 0.0000000000e+00 0.0000e+00 1.0000e+00
       11  1    3    3    0    0 -2.3247667507e+01 -3.4735919205e+01 +3.6930610316e+01 5.5775515291e+01 0.0000000000e+00 0.0000e+00 -1.0000e+00
<mgrwt>
<rscale>  0 0.91683200E+02</rscale>
<asrwt>0</asrwt>
<pdfrwt beam="2">  1        1 0.20552014E-02 0.91683200E+02</pdfrwt>
<pdfrwt beam="1">  1       -1 0.24201286E-01 0.91683200E+02</pdfrwt>
<totfact> 0.72890070E+04</totfact>
</mgrwt>
</event>
<event>
 4      1 +1.6944000e+03 3.32783100e+01 7.81860800e-03 1.56444400e-01
       -2 -1    0    0    0  501 -0.0000000000e+00 +0.0000000000e+00 +1.3874729201e+01 1.3874729201e+01 0.0000000000e+00 0.0000e+00 1.0000e+00
        2 -1    0    0  501    0 +0.0000000000e+00 -0.0000000000e+00 -1.9954372454e+01 1.9954372454e+01 0.0000000000e+00 0.0000e+00 -1.0000e+00
      -13  1    1    2    0    0 -6.8305840044e+00 +1.4857534954e+01 -6.1661566788e+00 1.7476404405e+01 0.0000000000e+00 0.0000e+00 -1.0000e+00
       13  1    1    2    0    0 +6.8305840044e+00 -1.4857534954e+01 +8.6513426257e-02 1.6352697249e+01 0.0000000000e+00 0.0000e+00 1.0000e+00
<mgrwt>
<rscale>  0 0.33278312E+02</rscale>
<asrwt>0</asrwt>
<pdfrwt beam="2">  1        2 0.30699034E-02 0.33278312E+02</pdfrwt>
<pdfrwt beam="1">  1       -2 0.21345737E-02 0.33278312E+02</pdfrwt>
<totfact> 0.12511737E+06</totfact>
</mgrwt>
</event>
<event>
 4      1 +1.6944000e+03 2.53613500e+01 7.81860800e-03 1.65586500e-01
       -4 -1    0    0    0  501 -0.0000000000e+00 +0.0000000000e+00 +3.2973237925e+01 3.2973237925e+01 0.0000000000e+00 0.0000e+00 -1.0000e+00
        4 -1    0    0  501    0 +0.0000000000e+00 -0.0000000000e+00 -4.8766681911e+00 4.8766681911e+00 0.0000000000e+00 0.0000e+00 1.0000e+00
      -11  1    1    2    0    0 +4.1142537415e+00 +1.1895259445e+01 +1.6348391308e+01 2.0632357584e+01 0.0000000000e+00 0.0000e+00 -1.0000e+00
       11  1    1    2    0    0 -4.1142537415e+00 -1.1895259445e+01 +1.1748178426e+01 1.7217548532e+01 0.0000000000e+00 0.0000e+00 1.0000e+00
<mgrwt>
<rscale>  0 0.25361352E+02</rscale>
<asrwt>0</asrwt>
<pdfrwt beam="2">  1        4 0.75025667E-03 0.25361352E+02</pdfrwt>
<pdfrwt beam="1">  1       -4 0.50728057E-02 0.25361352E+02</pdfrwt>
<totfact> 0.73251656E+05</totfact>
</mgrwt>
</event>
<event>
 4      1 +1.6944000e+03 1.02159000e+02 7.81860800e-03 1.27582000e-01
       -4 -1    0    0    0  501 -0.0000000000e+00 +0.0000000000e+00 +5.3650831542e+01 5.3650831542e+01 0.0000000000e+00 0.0000e+00 1.0000e+00
        4 -1    0    0  501    0 +0.0000000000e+00 -0.0000000000e+00 -4.8631409556e+01 4.8631409556e+01 0.0000000000e+00 0.0000e+00 -1.0000e+00
      -11  1    1    2    0    0 -9.5093276286e+00 -1.0681848127e+01 +5.1605446725e+01 5.3550455862e+01 0.0000000000e+00 0.0000e+00 1.0000e+00
       11  1    1    2    0    0 +9.5093276286e+00 +1.0681848127e+01 -4.6586024739e+01 4.8731785236e+01 0.0000000000e+00 0.0000e+00 -1.0000e+00
<mgrwt>
<rscale>  0 0.10215900E+03</rscale>
<asrwt>0</asrwt>
<pdfrwt beam="2">  1        4 0.74817553E-02 0.10215900E+03</pdfrwt>
<pdfrwt beam="1">  1       -4 0.82539741E-02 0.10215900E+03</pdfrwt>
<totfact> 0.19284616E+04</totfact>
</mgrwt>
</event>
<event>
 5      1 +1.6944000e+03 9.71640900e+01 7.81860800e-03 1.28637500e-01
       -3 -1    0    0    0  501 -0.0000000000e+00 +0.0000000000e+00 +7.8132687754e+01 7.8132687754e+01 0.0000000000e+00 0.0000e+00 1.0000e+00
        3 -1    0    0  501    0 +0.0000000000e+00 -0.0000000000e+00 -3.0207778594e+01 3.0207778594e+01 0.0000000000e+00 0.0000e+00 -1.0000e+00
       23  2    1    2    0    0 +0.0000000000e+00 +0.0000000000e+00 +4.7924909160e+01 1.0834046635e+02 9.7164086629e+01 0.0000e+00 0.0000e+00
      -13  1    3    3    0    0 +1.0111748910e+01 +2.3695064096e+01 -2.1964042263e+01 3.3854433699e+01 0.0000000000e+00 0.0000e+00 -1.0000e+00
       13  1    3    3    0    0 -1.0111748910e+01 -2.3695064096e+01 +6.9888951424e+01 7.4486032648e+01 0.0000000000e+00 0.0000e+00 1.0000e+00
<mgrwt>
<rscale>  0 0.97164087E+02</rscale>
<asrwt>0</asrwt>
<pdfrwt beam="2">  1        3 0.46473506E-02 0.97164087E+02</pdfrwt>
<pdfrwt beam="1">  1       -3 0.12020413E-01 0.97164087E+02</pdfrwt>
<totfact> 0.28629245E+04</totfact>
</mgrwt>
</event>
<event>
 5      1 +1.6944000e+03 9.16578900e+01 7.81860800e-03 1.29888600e-01
        1 -1    0    0  501    0 +0.0000000000e+00 +0.0000000000e+00 +1.1893555851e+01 1.1893555851e+01 0.0000000000e+00 0.0000e+00 -1.0000e+00
       -1 -1    0    0    0  501 -0.0000000000e+00 -0.0000000000e+00 -1.7659078652e+02 1.7659078652e+02 0.0000000000e+00 0.0000e+00 1.0000e+00
       23  2    1    2    0    0 +0.0000000000e+00 +0.0000000000e+00 -1.6469723067e+02 1.8848434237e+02 9.1657893981e+01 0.0000e+00 0.0000e+00
      -11  1    3    3    0    0 +6.3618552841e+00 +4.4993997822e+01 -9.4576672969e+01 1.0492702279e+02 0.0000000000e+00 0.0000e+00 -1.0000e+00
       11  1    3    3    0    0 -6.3618552841e+00 -4.4993997822e+01 -7.0120557698e+01 8.3557319575e+01 0.0000000000e+00 0.0000e+00 1.0000e+00
<mgrwt>
<rscale>  0 0.91657894E+02</rscale>
<asrwt>0</asrwt>
<pdfrwt beam="1">  1        1 0.18297778E-02 0.91657894E+02</pdfrwt>
<pdfrwt beam="2">  1       -1 0.27167813E-01 0.91657894E+02</pdfrwt>
<totfact> 0.70852836E+04</totfact>
</mgrwt>
</event>
<event>
 4      1 +1.6944000e+03 7.68076900e+01 7.81860800e-03 1.33836300e-01
        1 -1    0    0  501    0 +0.0000000000e+00 +0.0000000000e+00 +3.0976017860e+02 3.0976017860e+02 0.0000000000e+00 0.0000e+00 -1.0000e+00
       -1 -1    0    0    0  501 -0.0000000000e+00 -0.0000000000e+00 -4.7612806610e+00 4.7612806610e+00 0.0000000000e+00 0.0000e+00 1.0000e+00
      -13  1    1    2    0    0 +1.6167274303e-01 +3.6425433706e+01 +2.0231914709e+02 2.0557206921e+02 0.0000000000e+00 0.0000e+00 -1.0000e+00
       13  1    1    2    0    0 -1.6167274303e-01 -3.6425433706e+01 +1.0267975085e+02 1.0894939005e+02 0.0000000000e+00 0.0000e+00 1.0000e+00
<mgrwt>
<rscale>  0 0.76807686E+02</rscale>
<asrwt>0</asrwt>
<pdfrwt beam="1">  1        1 0.47655396E-01 0.76807686E+02</pdfrwt>
<pdfrwt beam="2">  1       -1 0.73250496E-03 0.76807686E+02</pdfrwt>
<totfact> 0.20268920E+05</totfact>
</mgrwt>
</event>
<event>
 5      1 +1.6944000e+03 8.77247200e+01 7.81860800e-03 1.30845700e-01
        1 -1    0    0  501    0 +0.0000000000e+00 +0.0000000000e+00 +1.1622405064e+02 1.1622405064e+02 0.0000000000e+00 0.0000e+00 -1.0000e+00
       -1 -1    0    0    0  501 -0.0000000000e+00 -0.0000000000e+00 -1.6553429267e+01 1.6553429267e+01 0.0000000000e+00 0.0000e+00 1.0000e+00
       23  2    1    2    0    0 +0.0000000000e+00 +0.0000000000e+00 +9.9670621378e+01 1.3277747991e+02 8.7724719468e+01 0.0000e+00 0.0000e+00
      -11  1    3    3    0    0 +4.2234456052e+01 +1.1330047091e+01 +5.5031807201e+01 7.0289537265e+01 0.0000000000e+00 0.0000e+00 1.0000e+00
       11  1    3    3    0    0 -4.2234456052e+01 -1.1330047091e+01 +4.4638814177e+01 6.2487942647e+01 0.0000000000e+00 0.0000e+00 -1.0000e+00
<mgrwt>
<rscale>  0 0.87724719E+02</rscale>
<asrwt>0</asrwt>
<pdfrwt beam="1">  1        1 0.17880623E-01 0.87724719E+02</pdfrwt>
<pdfrwt beam="2">  1       -1 0.25466815E-02 0.87724719E+02</pdfrwt>
<totfact> 0.11893914E+05</totfact>
</mgrwt>
</event>
<event>
 5      1 +1.6944000e+03 9.15514800e+01 7.81860800e-03 1.29913700e-01
       -2 -1    0    0    0  501 -0.0000000000e+00 +0.0000000000e+00 +1.4483674569e+01 1.4483674569e+01 0.0000000000e+00 0.0000e+00 1.0000e+00
        2 -1    0    0  501    0 +0.0000000000e+00 -0.0000000000e+00 -1.4467449295e+02 1.4467449295e+02 0.0000000000e+00 0.0000e+00 -1.0000e+00
       23  2    1    2    0    0 +0.0000000000e+00 +0.0000000000e+00 -1.3019081838e+02 1.5915816752e+02 9.1551477853e+01 0.0000e+00 0.0000e+00
      -13  1    3    3    0    0 +2.8032632527e+01 +1.5279054672e+01 -8.0661127361e+00 3.2929320867e+01 0.0000000000e+00 0.0000e+00 1.0000e+00
       13  1    3    3    0    0 -2.8032632527e+01 -1.5279054672e+01 -1.2212470564e+02 1.2622884665e+02 0.0000000000e+00 0.0000e+00 -1.0000e+00
<mgrwt>
<rscale>  0 0.91551478E+02</rscale>
<asrwt>0</asrwt>
<pdfrwt beam="2">  1        2 0.22257615E-01 0.91551478E+02</pdfrwt>
<pdfrwt beam="1">  1       -2 0.22282576E-02 0.91551478E+02</pdfrwt>
<totfact> 0.13657643E+05</totfact>
</mgrwt>
</event>
<event>
 4      1 +1.6944000e+03 2.34797200e+01 7.81860800e-03 1.68385000e-01
       -2 -1    0    0    0  501 -0.0000000000e+00 +0.0000000000e+00 +1.0203030532e+01 1.0203030532e+01 0.0000000000e+00 0.0000e+00 -1.0000e+00
        2 -1    0    0  501    0 +0.0000000000e+00 -0.0000000000e+00 -1.3508175067e+01 1.3508175067e+01 0.0000000000e+00 0.0000e+00 1.0000e+00
      -11  1    1    2    0    0 +9.4668064330e+00 +4.7905742859e+00 +3.4223377445e+00 1.1148202620e+01 0.0000000000e+00 0.0000e+00 -1.0000e+00
       11  1    1    2    0    0 -9.4668064330e+00 -4.7905742859e+00 -6.7274822786e+00 1.2563002979e+01 0.0000000000e+00 0.0000e+00 1.0000e+00
<mgrwt>
<rscale>  0 0.23479721E+02</rscale>
<asrwt>0</asrwt>
<pdfrwt beam="2">  1        2 0.20781808E-02 0.23479721E+02</pdfrwt>
<pdfrwt beam="1">  1       -2 0.15696970E-02 0.23479721E+02</pdfrwt>
<totfact> 0.27875227E+06</totfact>
</mgrwt>
</event>
<event>
 5      1 +1.6944000e+03 9.17077400e+01 7.81860800e-03 1.29876800e-01
       -2 -1    0    0    0  501 -0.0000000000e+00 +0.0000000000e+00 +1.2187867115e+02 1.2187867115e+02 0.0000000000e+00 0.0000e+00 -1.0000e+00
        2 -1    0    0  501    0 +0.0000000000e+00 -0.0000000000e+00 -1.7251396468e+01 1.7251396468e+01 0.0000000000e+00 0.0000e+00 1.0000e+00
       23  2    1    2    0    0 +0.0000000000e+00 +0.0000000000e+00 +1.0462727468e+02 1.3913006762e+02 9.1707737448e+01 0.0000e+00 0.0000e+00
      -13  1    3    3    0    0 +1.7748425214e+01 +9.9709158662e+00 -1.0019750102e+01 2.2689670621e+01 0.0000000000e+00 0.0000e+00 1.0000e+00
       13  1    3    3    0    0 -1.7748425214e+01 -9.9709158662e+00 +1.1464702478e+02 1.1644039700e+02 0.0000000000e+00 0.0000e+00 -1.0000e+00
<mgrwt>
<rscale>  0 0.91707737E+02</rscale>
<asrwt>0</asrwt>
<pdfrwt beam="2">  1        2 0.26540611E-02 0.91707737E+02</pdfrwt>
<pdfrwt beam="1">  1       -2 0.18750564E-01 0.91707737E+02</pdfrwt>
<totfact> 0.73950236E+04</totfact>
</mgrwt>
</event>
<event>
 5      1 +1.6944000e+03 9.04779700e+01 7.81860800e-03 1.30169800e-01
       -1 -1    0    0    0  501 -0.0000000000e+00 +0.0000000000e+00 +5.3382825068e+01 5.3382825068e+01 0.0000000000e+00 0.0000e+00 1.0000e+00
        1 -1    0    0  501    0 +0.0000000000e+00 -0.0000000000e+00 -3.8337528045e+01 3.8337528045e+01 0.0000000000e+00 0.0000e+00 -1.0000e+00
       23  2    1    2    0    0 +0.0000000000e+00 +0.0000000000e+00 +1.5045297023e+01 9.1720353113e+01 9.0477965343e+01 0.0000e+00 0.0000e+00
      -13  1    3    3    0    0 +2.6058978516e+01 +3.6689470784e+01 +2.8355328359e+00 4.5091328148e+01 0.0000000000e+00 0.0000e+00 1.0000e+00
       13  1    3    3    0    0 -2.6058978516e+01 -3.6689470784e+01 +1.2209764187e+01 4.6629024965e+01 0.0000000000e+00 0.0000e+00 -1.0000e+00
<mgrwt>
<rscale>  0 0.90477965E+02</rscale>
<asrwt>0</asrwt>
<pdfrwt beam="2">  1        1 0.58980813E-02 0.90477965E+02</pdfrwt>
<pdfrwt beam="1">  1       -1 0.82127423E-02 0.90477965E+02</pdfrwt>
<totfact> 0.92060127E+04</totfact>
</mgrwt>
</event>
<event>
 5      1 +1.6944000e+03 9.62759900e+01 7.81860800e-03 1.28832800e-01
       -1 -1    0    0    0  501 -0.0000000000e+00 +0.0000000000e+00 +2.3613862852e+01 2.3613862852e+01 0.0000000000e+00 0.0000e+00 1.0000e+00
        1 -1    0    0  501    0 +0.0000000000e+00 -0.0000000000e+00 -9.8131609699e+01 9.8131609699e+01 0.0000000000e+00 0.0000e+00 -1.0000e+00
       23  2    1    2    0    0 +0.0000000000e+00 +0.0000000000e+00 -7.4517746847e+01 1.2174547255e+02 9.6275986058e+01 0.0000e+00 0.0000e+00
      -13  1    3    3    0    0 -1.0283565689e+01 +2.8875585667e+01 -8.4195791459e+01 8.9601799481e+01 0.0000000000e+00 0.0000e+00 -1.0000e+00
       13  1    3    3    0    0 +1.0283565689e+01 -2.8875585667e+01 +9.6780446119e+00 3.2143673070e+01 0.0000000000e+00 0.0000e+00 1.0000e+00
<mgrwt>
<rscale>  0 0.96275986E+02</rscale>
<asrwt>0</asrwt>
<pdfrwt beam="2">  1        1 0.15097171E-01 0.96275986E+02</pdfrwt>
<pdfrwt beam="1">  1       -1 0.36329020E-02 0.96275986E+02</pdfrwt>
<totfact> 0.89704587E+04</totfact>
</mgrwt>
</event>
<event>
 4      1 +1.6944000e+03 9.18627700e+01 7.81860800e-03 1.29840200e-01
        3 -1    0    0  501    0 +0.0000000000e+00 +0.0000000000e+00 +1.0740680758e+02 1.0740680758e+02 0.0000000000e+00 0.0000e+00 -1.0000e+00
       -3 -1    0    0    0  501 -0.0000000000e+00 -0.0000000000e+00 -1.9642070201e+01 1.9642070201e+01 0.0000000000e+00 0.0000e+00 1.0000e+00
      -13  1    1    2    0    0 -3.1689884809e+01 +2.9818712012e+01 +6.4222192396e+01 7.7575088665e+01 0.0000000000e+00 0.0000e+00 1.0000e+00
       13  1    1    2    0    0 +3.1689884809e+01 -2.9818712012e+01 +2.3542544984e+01 4.9473789117e+01 0.0000000000e+00 0.0000e+00 -1.0000e+00
<mgrwt>
<rscale>  0 0.91862768E+02</rscale>
<asrwt>0</asrwt>
<pdfrwt beam="1">  1        3 0.16524124E-01 0.91862768E+02</pdfrwt>
<pdfrwt beam="2">  1       -3 0.30218570E-02 0.91862768E+02</pdfrwt>
<totfact> 0.32109782E+04</totfact>
</mgrwt>
</event>
<event>
 5      1 +1.6944000e+03 7.19435700e+01 7.81860800e-03 1.35360600e-01
       -1 -1    0    0    0  501 -0.0000000000e+00 +0.0000000000e+00 +1.2105073859e+01 1.2105073859e+01 0.0000000000e+00 0.0000e+00 1.0000e+00
        1 -1    0    0  501    0 +0.0000000000e+00 -0.0000000000e+00 -1.0689478313e+02 1.0689478313e+02 0.0000000000e+00 0.0000e+00 -1.0000e+00
       23  2    1    2    0    0 +0.0000000000e+00 +0.0000000000e+00 -9.4789709275e+01 1.1899985699e+02 7.1943568023e+01 0.0000e+00 0.0000e+00
      -11  1    3    3    0    0 +1.2469370727e+00 -2.6478443805e+01 -8.7616585805e+01 9.1538674594e+01 0.0000000000e+00 0.0000e+00 -1.0000e+00
       11  1    3    3    0    0 -1.2469370727e+00 +2.6478443805e+01 -7.1731234700e+00 2.7461182398e+01 0.0000000000e+00 0.0000e+00 1.0000e+00
<mgrwt>
<rscale>  0 0.71943568E+02</rscale>
<asrwt>0</asrwt>
<pdfrwt beam="2">  1        1 0.16445351E-01 0.71943568E+02</pdfrwt>
<pdfrwt beam="1">  1       -1 0.18623191E-02 0.71943568E+02</pdfrwt>
<totfact> 0.19925936E+05</totfact>
</mgrwt>
</event>
<event>
 4      1 +1.6944000e+03 2.73185300e+01 7.81860800e-03 1.62977200e-01
        2 -1    0    0  501    0 +0.0000000000e+00 +0.0000000000e+00 +1.0536406796e+01 1.0536406796e+01 0.0000000000e+00 0.0000e+00 1.0000e+00
       -2 -1    0    0    0  501 -0.0000000000e+00 -0.0000000000e+00 -1.7707697073e+01 1.7707697073e+01 0.0000000000e+00 0.0000e+00 -1.0000e+00
      -11  1    1    2    0    0 -9.5315384526e+00 -9.7761929501e+00 -3.1834589597e+00 1.4019935264e+01 0.0000000000e+00 0.0000e+00 -1.0000e+00
       11  1    1    2    0    0 +9.5315384526e+00 +9.7761929501e+00 -3.9878313175e+00 1.4224168604e+01 0.0000000000e+00 0.0000e+00 1.0000e+00
<mgrwt>
<rscale>  0 0.27318528E+02</rscale>
<asrwt>0</asrwt>
<pdfrwt beam="1">  1        2 0.16209857E-02 0.27318528E+02</pdfrwt>
<pdfrwt beam="2">  1       -2 0.27242611E-02 0.27318528E+02</pdfrwt>
<totfact> 0.18997168E+06</totfact>
</mgrwt>
</event>
<event>
 5      1 +1.6944000e+03 9.08009300e+01 7.81860800e-03 1.30092400e-01
       -1 -1    0    0    0  501 -0.0000000000e+00 +0.0000000000e+00 +2.3920307348e+02 2.3920307348e+02 0.0000000000e+00 0.0000e+00 1.0000e+00
        1 -1    0    0  501    0 +0.0000000000e+00 -0.0000000000e+00 -8.6169558970e+00 8.6169558970e+00 0.0000000000e+00 0.0000e+00 -1.0000e+00
       23  2    1    2    0    0 +0.0000000000e+00 +0.0000000000e+00 +2.3058611759e+02 2.4782002938e+02 9.0800932476e+01 0.0000e+00 0.0000e+00
      -13  1    3    3    0    0 -1.1219407286e+01 +4.0337682767e+01 +1.6320694697e+02 1.6849187307e+02 0.0000000000e+00 0.0000e+00 1.0000e+00
       13  1    3    3    0    0 +1.1219407286e+01 -4.0337682767e+01 +6.7379170613e+01 7.9328156308e+01 0.0000000000e+00 0.0000e+00 -1.0000e+00
<mgrwt>
<rscale>  0 0.90800932E+02</rscale>
<asrwt>0</asrwt>
<pdfrwt beam="2">  1        1 0.13256857E-02 0.90800932E+02</pdfrwt>
<pdfrwt beam="1">  1       -1 0.36800468E-01 0.90800932E+02</pdfrwt>
<totfact> 0.66436659E+04</totfact>
</mgrwt>
</event>
<event>
 5      1 +1.6944000e+03 9.04213300e+01 7.81860800e-03 1.30183500e-01
       -1 -1    0    0    0  501 -0.0000000000e+00 +0.0000000000e+00 +2.3727756492e+01 2.3727756492e+01 0.0000000000e+00 0.0000e+00 1.0000e+00
        1 -1    0    0  501    0 +0.0000000000e+00 -0.0000000000e+00 -8.6144009056e+01 8.6144009056e+01 0.0000000000e+00 0.0000e+00 -1.0000e+00
       23  2    1    2    0    0 +0.0000000000e+00 +0.0000000000e+00 -6.2416252564e+01 1.0987176555e+02 9.0421326470e+01 0.0000e+00 0.0000e+00
      -13  1    3    3    0    0 +1.9419506988e+01 -3.6369766407e+01 -5.3749197283e+01 6.7741075934e+01 0.0000000000e+00 0.0000e+00 -1.0000e+00
       13  1    3    3    0    0 -1.9419506988e+01 +3.6369766407e+01 -8.6670552808e+00 4.2130689614e+01 0.0000000000e+00 0.0000e+00 1.0000e+00
<mgrwt>
<rscale>  0 0.90421326E+02</rscale>
<asrwt>0</asrwt>
<pdfrwt beam="2">  1        1 0.13252924E-01 0.90421326E+02</pdfrwt>
<pdfrwt beam="1">  1       -1 0.36504241E-02 0.90421326E+02</pdfrwt>
<totfact> 0.10428401E+05</totfact>
</mgrwt>
</event>
<event>
 4      1 +1.6944000e+03 3.49325900e+01 7.81860800e-03 1.54920000e-01
       -1 -1    0    0    0  501 -0.0000000000e+00 +0.0000000000e+00 +4.6888406240e+00 4.6888406240e+00 0.0000000000e+00 0.0000e+00 -1.0000e+00
        1 -1    0    0  501    0 +0.0000000000e+00 -0.0000000000e+00 -6.5063290586e+01 6.5063290586e+01 0.0000000000e+00 0.0000e+00 1.0000e+00
      -13  1    1    2    0    0 +1.6153887583e+01 +1.2085232819e+00 -1.7145010073e+01 2.3587284349e+01 0.0000000000e+00 0.0000e+00 -1.0000e+00
       13  1    1    2    0    0 -1.6153887583e+01 -1.2085232819e+00 -4.3229439889e+01 4.6164846861e+01 0.0000000000e+00 0.0000e+00 1.0000e+00
<mgrwt>
<rscale>  0 0.34932587E+02</rscale>
<asrwt>0</asrwt>
<pdfrwt beam="2">  1        1 0.10009737E-01 0.34932587E+02</pdfrwt>
<pdfrwt beam="1">  1       -1 0.72136007E-03 0.34932587E+02</pdfrwt>
<totfact> 0.11664962E+06</totfact>
</mgrwt>
</event>
<event>
 5      1 +1.6944000e+03 9.09452300e+01 7.81860800e-03 1.30057900e-01
       -2 -1    0    0    0  501 -0.0000000000e+00 +0.0000000000e+00 +2.9594646982e+01 2.9594646982e+01 0.0000000000e+00 0.0000e+00 1.0000e+00
        2 -1    0    0  501    0 +0.0000000000e+00 -0.0000000000e+00 -6.9869351823e+01 6.9869351823e+01 0.0000000000e+00 0.0000e+00 -1.0000e+00
       23  2    1    2    0    0 +0.0000000000e+00 +0.0000000000e+00 -4.0274704841e+01 9.9463998805e+01 9.0945231916e+01 0.0000e+00 0.0000e+00
      -13  1    3    3    0    0 -4.4045805284e+00 -3.2841399672e+01 -5.4195990767e+01 6.3522935049e+01 0.0000000000e+00 0.0000e+00 -1.0000e+00
       13  1    3    3    0    0 +4.4045805284e+00 +3.2841399672e+01 +1.3921285926e+01 3.5941063756e+01 0.0000000000e+00 0.0000e+00 1.0000e+00
<mgrwt>
<rscale>  0 0.90945232E+02</rscale>
<asrwt>0</asrwt>
<pdfrwt beam="2">  1        2 0.10749131E-01 0.90945232E+02</pdfrwt>
<pdfrwt beam="1">  1       -2 0.45530226E-02 0.90945232E+02</pdfrwt>
<totfact> 0.11135192E+05</totfact>
</mgrwt>
</event>
<event>
 5      1 +1.6944000e+03 9.05662900e+01 7.81860800e-03 1.30148600e-01
        2 -1    0    0  501    0 +0.0000000000e+00 +0.0000000000e+00 +3.8929029900e+01 3.8929029900e+01 0.0000000000e+00 0.0000e+00 -1.0000e+00
       -2 -1    0    0    0  501 -0.0000000000e+00 -0.0000000000e+00 -5.2674399318e+01 5.2674399318e+01 0.0000000000e+00 0.0000e+00 1.0000e+00
       23  2    1    2    0    0 +0.0000000000e+00 +0.0000000000e+00 -1.3745369419e+01 9.1603429218e+01 9.0566290992e+01 0.0000e+00 0.0000e+00
      -11  1    3    3    0    0 -3.3310267882e+01 -1.9017746973e+01 -3.1217270746e+01 4.9454692792e+01 0.0000000000e+00 0.0000e+00 1.0000e+00
       11  1    3    3    0    0 +3.3310267882e+01 +1.9017746973e+01 +1.7471901328e+01 4.2148736426e+01 0.0000000000e+00 0.0000e+00 -1.0000e+00
<mgrwt>
<rscale>  0 0.90566291E+02</rscale>
<asrwt>0</asrwt>
<pdfrwt beam="1">  1        2 0.59890815E-02 0.90566291E+02</pdfrwt>
<pdfrwt beam="2">  1       -2 0.81037538E-02 0.90566291E+02</pdfrwt>
<totfact> 0.96583509E+04</totfact>
</mgrwt>
</event>
<event>
 5      1 +1.6944000e+03 9.25489000e+01 7.81860800e-03 1.29679400e-01
       -2 -1    0    0    0  501 -0.0000000000e+00 +0.0000000000e+00 +6.9546668042e+00 6.9546668042e+00 0.0000000000e+00 0.0000e+00 1.0000e+00
        2 -1    0    0  501    0 +0.0000000000e+00 -0.0000000000e+00 -3.0789755537e+02 3.0789755537e+02 0.0000000000e+00 0.0000e+00 -1.0000e+00
       23  2    1    2    0    0 +0.0000000000e+00 +0.0000000000e+00 -3.0094288857e+02 3.1485222218e+02 9.2548903990e+01 0.0000e+00 0.0000e+00
      -13  1    3    3    0    0 +1.9467224743e+01 +4.1084024002e+01 -1.7982647462e+02 1.8548431427e+02 0.0000000000e+00 0.0000e+00 1.0000e+00
       13  1    3    3    0    0 -1.9467224743e+01 -4.1084024002e+01 -1.2111641395e+02 1.2936790790e+02 0.0000000000e+00 0.0000e+00 -1.0000e+00
<mgrwt>
<rscale>  0 0.92548904E+02</rscale>
<asrwt>0</asrwt>
<pdfrwt beam="2">  1        2 0.47368853E-01 0.92548904E+02</pdfrwt>
<pdfrwt beam="1">  1       -2 0.10699488E-02 0.92548904E+02</pdfrwt>
<totfact> 0.17431157E+05</totfact>
</mgrwt>
</event>
<event>
 5      1 +1.6944000e+03 8.21443300e+01 7.81860800e-03 1.32307400e-01
       -1 -1    0    0    0  501 -0.0000000000e+00 +0.0000000000e+00 +1.0171890807e+01 1.0171890807e+01 0.0000000000e+00 0.0000e+00 1.0000e+00
        1 -1    0    0  501    0 +0.0000000000e+00 -0.0000000000e+00 -1.6584160563e+02 1.6584160563e+02 0.0000000000e+00 0.0000e+00 -1.0000e+00
       23  2    1    2    0    0 +0.0000000000e+00 +0.0000000000e+00 -1.5566971483e+02 1.7601349644e+02 8.2144329172e+01 0.0000e+00 0.0000e+00
      -11  1    3    3    0    0 -2.5526835050e+01 +1.6508359585e+01 -1.8655900182e+01 3.5667742506e+01 0.0000000000e+00 0.0000e+00 1.0000e+00
       11  1    3    3    0    0 +2.5526835050e+01 -1.6508359585e+01 -1.3701381465e+02 1.4034575394e+02 0.0000000000e+00 0.0000e+00 -1.0000e+00
<mgrwt>
<rscale>  0 0.82144329E+02</rscale>
<asrwt>0</asrwt>
<pdfrwt beam="2">  1        1 0.25514094E-01 0.82144329E+02</pdfrwt>
<pdfrwt beam="1">  1       -1 0.15649062E-02 0.82144329E+02</pdfrwt>
<totfact> 0.15100433E+05</totfact>
</mgrwt>
</event>
<event>
 5      1 +1.6944000e+03 9.05549700e+01 7.81860800e-03 1.30151300e-01
       -2 -1    0    0    0  501 -0.0000000000e+00 +0.0000000000e+00 +2.0089605411e+02 2.0089605411e+02 0.0000000000e+00 0.0000e+00 1.0000e+00
        2 -1    0    0  501    0 +0.0000000000e+00 -0.0000000000e+00 -1.0204534178e+01 1.0204534178e+01 0.0000000000e+00 0.0000e+00 -1.0000e+00
       23  2    1    2    0    0 +0.0000000000e+00 +0.0000000000e+00 +1.9069151993e+02 2.1110058829e+02 9.0554970055e+01 0.0000e+00 0.0000e+00
      -11  1    3    3    0    0 +2.0560511724e+00 -3.4528553326e+01 +2.7236691108e+01 4.4025966017e+01 0.0000000000e+00 0.0000e+00 -1.0000e+00
       11  1    3    3    0    0 -2.0560511724e+00 +3.4528553326e+01 +1.6345482882e+02 1.6707462227e+02 0.0000000000e+00 0.0000e+00 1.0000e+00
<mgrwt>
<rscale>  0 0.90554970E+02</rscale>
<asrwt>0</asrwt>
<pdfrwt beam="2">  1        2 0.15699285E-02 0.90554970E+02</pdfrwt>
<pdfrwt beam="1">  1       -2 0.30907082E-01 0.90554970E+02</pdfrwt>
<totfact> 0.63294596E+04</totfact>
</mgrwt>
</event>
<event>
 4      1 +1.6944000e+03 3.16469300e+01 7.81860800e-03 1.58056600e-01
        2 -1    0    0  501    0 +0.0000000000e+00 +0.0000000000e+00 +8.9238268902e+00 8.9238268902e+00 0.0000000000e+00 0.0000e+00 -1.0000e+00
       -2 -1    0    0    0  501 -0.0000000000e+00 -0.0000000000e+00 -2.8057694206e+01 2.8057694206e+01 0.0000000000e+00 0.0000e+00 1.0000e+00
      -13  1    1    2    0    0 -1.0122493640e+01 -7.4671734960e-01 -2.3752358544e+01 2.5830156807e+01 0.0000000000e+00 0.0000e+00 1.0000e+00
       13  1    1    2    0    0 +1.0122493640e+01 +7.4671734960e-01 +4.6184912277e+00 1.1151364289e+01 0.0000000000e+00 0.0000e+00 -1.0000e+00
<mgrwt>
<rscale>  0 0.31646928E+02</rscale>
<asrwt>0</asrwt>
<pdfrwt beam="1">  1        2 0.13728964E-02 0.31646928E+02</pdfrwt>
<pdfrwt beam="2">  1       -2 0.43165683E-02 0.31646928E+02</pdfrwt>
<totfact> 0.12969775E+06</totfact>
</mgrwt>
</event>
<event>
 5      1 +1.6944000e+03 9.13108900e+01 7.81860800e-03 1.29970800e-01
       -1 -1    0    0    0  501 -0.0000000000e+00 +0.0000000000e+00 +4.3943475950e+01 4.3943475950e+01 0.0000000000e+00 0.0000e+00 1.0000e+00
        1 -1    0    0  501    0 +0.0000000000e+00 -0.0000000000e+00 -4.7434108726e+01 4.7434108726e+01 0.0000000000e+00 0.0000e+00 -1.0000e+00
       23  2    1    2    0    0 +0.0000000000e+00 +0.0000000000e+00 -3.4906327769e+00 9.1377584676e+01 9.1310889077e+01 0.0000e+00 0.0000e+00
      -13  1    3    3    0    0 +2.9080714702e+01 -2.9555623741e+01 +1.7378763850e+01 4.4958250580e+01 0.0000000000e+00 0.0000e+00 1.0000e+00
       13  1    3    3    0    0 -2.9080714702e+01 +2.9555623741e+01 -2.0869396627e+01 4.6419334096e+01 0.0000000000e+00 0.0000e+00 -1.0000e+00
<mgrwt>
<rscale>  0 0.91310889E+02</rscale>
<asrwt>0</asrwt>
<pdfrwt beam="2">  1        1 0.72975552E-02 0.91310889E+02</pdfrwt>
<pdfrwt beam="1">  1       -1 0.67605348E-02 0.91310889E+02</pdfrwt>
<totfact> 0.92642796E+04</totfact>
</mgrwt>
</event>
<event>
 5      1 +1.6944000e+03 9.10530700e+01 7.81860800e-03 1.30032100e-01
        1 -1    0    0  501    0 +0.0000000000e+00 +0.0000000000e+00 +2.3835086987e+01 2.3835086987e+01 0.0000000000e+00 0.0000e+00 -1.0000e+00
       -1 -1    0    0    0  501 -0.0000000000e+00 -0.0000000000e+00 -8.6958583316e+01 8.6958583316e+01 0.0000000000e+00 0.0000e+00 1.0000e+00
       23  2    1    2    0    0 +0.0000000000e+00 +0.0000000000e+00 -6.3123496329e+01 1.1079367030e+02 9.1053070187e+01 0.0000e+00 0.0000e+00
      -11  1    3    3    0    0 +2.9407721849e+01 -3.1799046736e+01 -1.4497328064e+01 4.5674566212e+01 0.0000000000e+00 0.0000e+00 -1.0000e+00
       11  1    3    3    0    0 -2.9407721849e+01 +3.1799046736e+01 -4.8626168265e+01 6.5119104092e+01 0.0000000000e+00 0.0000e+00 1.0000e+00
<mgrwt>
<rscale>  0 0.91053070E+02</rscale>
<asrwt>0</asrwt>
<pdfrwt beam="1">  1        1 0.36669365E-02 0.91053070E+02</pdfrwt>
<pdfrwt beam="2">  1       -1 0.13378244E-01 0.91053070E+02</pdfrwt>
<totfact> 0.83737413E+04</totfact>
</mgrwt>
</event>
<event>
 5      1 +1.6944000e+03 8.39627700e+01 7.81860800e-03 1.31816700e-01
       -3 -1    0    0    0  501 -0.0000000000e+00 +0.0000000000e+00 +6.2245718469e+01 6.2245718469e+01 0.0000000000e+00 0.0000e+00 1.0000e+00
        3 -1    0    0  501    0 +0.0000000000e+00 -0.0000000000e+00 -2.8314186000e+01 2.8314186000e+01 0.0000000000e+00 0.0000e+00 -1.0000e+00
       23  2    1    2    0    0 +0.0000000000e+00 +0.0000000000e+00 +3.3931532469e+01 9.0559904469e+01 8.3962773905e+01 0.0000e+00 0.0000e+00
      -13  1    3    3    0    0 +2.2783188465e+01 +2.1500957927e+01 +4.7109337722e+01 5.6574327827e+01 0.0000000000e+00 0.0000e+00 -1.0000e+00
       13  1    3    3    0    0 -2.2783188465e+01 -2.1500957927e+01 -1.3177805253e+01 3.3985576643e+01 0.0000000000e+00 0.0000e+00 1.0000e+00
<mgrwt>
<rscale>  0 0.83962774E+02</rscale>
<asrwt>0</asrwt>
<pdfrwt beam="2">  1        3 0.43560286E-02 0.83962774E+02</pdfrwt>
<pdfrwt beam="1">  1       -3 0.95762643E-02 0.83962774E+02</pdfrwt>
<totfact> 0.44236581E+04</totfact>
</mgrwt>
</event>
<event>
 5      1 +1.6944000e+03 9.22680000e+01 7.81860800e-03 1.29745100e-01
        1 -1    0    0  501    0 +0.0000000000e+00 +0.0000000000e+00 +1.3733651312e+02 1.3733651312e+02 0.0000000000e+00 0.0000e+00 -1.0000e+00
       -1 -1    0    0    0  501 -0.0000000000e+00 -0.0000000000e+00 -1.5497305750e+01 1.5497305750e+01 0.0000000000e+00 0.0000e+00 1.0000e+00
       23  2    1    2    0    0 +0.0000000000e+00 +0.0000000000e+00 +1.2183920737e+02 1.5283381887e+02 9.2267999534e+01 0.0000e+00 0.0000e+00
      -11  1    3    3    0    0 +1.9741405371e+01 -4.1329164487e+01 +7.0070888015e+01 8.3712318510e+01 0.0000000000e+00 0.0000e+00 1.0000e+00
       11  1    3    3    0    0 -1.9741405371e+01 +4.1329164487e+01 +5.1768319355e+01 6.9121500360e+01 0.0000000000e+00 0.0000e+00 -1.0000e+00
<mgrwt>
<rscale>  0 0.92268000E+02</rscale>
<asrwt>0</asrwt>
<pdfrwt beam="1">  1        1 0.21128694E-01 0.92268000E+02</pdfrwt>
<pdfrwt beam="2">  1       -1 0.23842010E-02 0.92268000E+02</pdfrwt>
<totfact> 0.10684893E+05</totfact>
</mgrwt>
</event>
<event>
 5      1 +1.6944000e+03 9.05630700e+01 7.81860800e-03 1.30149400e-01
        1 -1    0    0  501    0 +0.0000000000e+00 +0.0000000000e+00 +2.6301324448e+01 2.6301324448e+01 0.0000000000e+00 0.0000e+00 -1.0000e+00
       -1 -1    0    0    0  501 -0.0000000000e+00 -0.0000000000e+00 -7.7958708510e+01 7.7958708510e+01 0.0000000000e+00 0.0000e+00 1.0000e+00
       23  2    1    2    0    0 +0.0000000000e+00 +0.0000000000e+00 -5.1657384062e+01 1.0426003296e+02 9.0563067221e+01 0.0000e+00 0.0000e+00
      -13  1    3    3    0    0 -1.2762027258e+01 -2.1630298810e+00 -7.5783445054e+01 7.6880937704e+01 0.0000000000e+00 0.0000e+00 1.0000e+00
       13  1    3    3    0    0 +1.2762027258e+01 +2.1630298810e+00 +2.4126060992e+01 2.7379095255e+01 0.0000000000e+00 0.0000e+00 -1.0000e+00
<mgrwt>
<rscale>  0 0.90563067E+02</rscale>
<asrwt>0</asrwt>
<pdfrwt beam="1">  1        1 0.40463577E-02 0.90563067E+02</pdfrwt>
<pdfrwt beam="2">  1       -1 0.11993647E-01 0.90563067E+02</pdfrwt>
<totfact> 0.86500318E+04</totfact>
</mgrwt>
</event>
<event>
 4      1 +1.6944000e+03 2.18626400e+01 7.81860800e-03 1.71063800e-01
       -2 -1    0    0    0  501 -0.0000000000e+00 +0.0000000000e+00 +2.0372168063e+01 2.0372168063e+01 0.0000000000e+00 0.0000e+00 -1.0000e+00
        2 -1    0    0  501    0 +0.0000000000e+00 -0.0000000000e+00 -5.8655399216e+00 5.8655399216e+00 0.0000000000e+00 0.0000e+00 1.0000e+00
      -11  1    1    2    0    0 -1.0873672673e+01 -1.0834072659e+00 +7.5995561129e+00 1.3310288570e+01 0.0000000000e+00 0.0000e+00 -1.0000e+00
       11  1    1    2    0    0 +1.0873672673e+01 +1.0834072659e+00 +6.9070720283e+00 1.2927419414e+01 0.0000000000e+00 0.0000e+00 1.0000e+00
<mgrwt>
<rscale>  0 0.21862641E+02</rscale>
<asrwt>0</asrwt>
<pdfrwt beam="2">  1        2 0.90239077E-03 0.21862641E+02</pdfrwt>
<pdfrwt beam="1">  1       -2 0.31341797E-02 0.21862641E+02</pdfrwt>
<totfact> 0.30764348E+06</totfact>
</mgrwt>
</event>
<event>
 5      1 +1.6944000e+03 9.09048000e+01 7.81860800e-03 1.30067500e-01
       -3 -1    0    0    0  501 -0.0000000000e+00 +0.0000000000e+00 +2.7309447094e+01 2.7309447094e+01 0.0000000000e+00 0.0000e+00 1.0000e+00
        3 -1    0    0  501    0 +0.0000000000e+00 -0.0000000000e+00 -7.5648566400e+01 7.5648566400e+01 0.0000000000e+00 0.0000e+00 -1.0000e+00
       23  2    1    2    0    0 +0.0000000000e+00 +0.0000000000e+00 -4.8339119306e+01 1.0295801349e+02 9.0904796833e+01 0.0000e+00 0.0000e+00
      -11  1    3    3    0    0 -2.6758880810e+01 -3.2345105133e+01 -4.4326433424e+00 4.2212460900e+01 0.0000000000e+00 0.0000e+00 -1.0000e+00
       11  1    3    3    0    0 +2.6758880810e+01 +3.2345105133e+01 -4.3906475964e+01 6.0745552593e+01 0.0000000000e+00 0.0000e+00 1.0000e+00
<mgrwt>
<rscale>  0 0.90904797E+02</rscale>
<asrwt>0</asrwt>
<pdfrwt beam="2">  1        3 0.11638241E-01 0.90904797E+02</pdfrwt>
<pdfrwt beam="1">  1       -3 0.42014534E-02 0.90904797E+02</pdfrwt>
<totfact> 0.34734527E+04</totfact>
</mgrwt>
</event>
<event>
 5      1 +1.6944000e+03 8.99179300e+01 7.81860800e-03 1.30305100e-01
       -3 -1    0    0    0  501 -0.0000000000e+00 +0.0000000000e+00 +3.3360216346e+01 3.3360216346e+01 0.0000000000e+00 0.0000e+00 1.0000e+00
        3 -1    0    0  501    0 +0.0000000000e+00 -0.0000000000e+00 -6.0590385046e+01 6.0590385046e+01 0.0000000000e+00 0.0000e+00 -1.0000e+00
       23  2    1    2    0    0 +0.0000000000e+00 +0.0000000000e+00 -2.7230168701e+01 9.3950601392e+01 8.9917925990e+01 0.0000e+00 0.0000e+00
      -11  1    3    3    0    0 +2.0357556505e+01 +7.4775385724e+00 +2.7533437118e+01 3.5049020664e+01 0.0000000000e+00 0.0000e+00 1.0000e+00
       11  1    3    3    0    0 -2.0357556505e+01 -7.4775385724e+00 -5.4763605819e+01 5.8901580728e+01 0.0000000000e+00 0.0000e+00 -1.0000e+00
<mgrwt>
<rscale>  0 0.89917926E+02</rscale>
<asrwt>0</asrwt>
<pdfrwt beam="2">  1        3 0.93215977E-02 0.89917926E+02</pdfrwt>
<pdfrwt beam="1">  1       -3 0.51323410E-02 0.89917926E+02</pdfrwt>
<totfact> 0.36478683E+04</totfact>
</mgrwt>
</event>
<event>
 5      1 +1.6944000e+03 9.02263700e+01 7.81860800e-03 1.30230400e-01
        4 -1    0    0  501    0 +0.0000000000e+00 +0.0000000000e+00 +4.3199175534e+02 4.3199175534e+02 0.0000000000e+00 0.0000e+00 -1.0000e+00
       -4 -1    0    0    0  501 -0.0000000000e+00 -0.0000000000e+00 -4.7111993978e+00 4.7111993978e+00 0.0000000000e+00 0.0000e+00 1.0000e+00
       23  2    1    2    0    0 +0.0000000000e+00 +0.0000000000e+00 +4.2728055594e+02 4.3670295473e+02 9.0226366382e+01 0.0000e+00 0.0000e+00
      -11  1    3    3    0    0 +2.7530190402e+01 -3.4172246491e+01 +2.6429849514e+02 2.6791668172e+02 0.0000000000e+00 0.0000e+00 -1.0000e+00
       11  1    3    3    0    0 -2.7530190402e+01 +3.4172246491e+01 +1.6298206080e+02 1.6878627301e+02 0.0000000000e+00 0.0000e+00 1.0000e+00
<mgrwt>
<rscale>  0 0.90226366E+02</rscale>
<asrwt>0</asrwt>
<pdfrwt beam="1">  1        4 0.66460239E-01 0.90226366E+02</pdfrwt>
<pdfrwt beam="2">  1       -4 0.72480025E-03 0.90226366E+02</pdfrwt>
<totfact> 0.14730794E+04</totfact>
</mgrwt>
</event>
<event>
 5      1 +1.6944000e+03 8.73653800e+01 7.81860800e-03 1.30936000e-01
       -2 -1    0    0    0  501 -0.0000000000e+00 +0.0000000000e+00 +3.1590981953e+01 3.1590981953e+01 0.0000000000e+00 0.0000e+00 1.0000e+00
        2 -1    0    0  501    0 +0.0000000000e+00 -0.0000000000e+00 -6.0402602483e+01 6.0402602483e+01 0.0000000000e+00 0.0000e+00 -1.0000e+00
       23  2    1    2    0    0 +0.0000000000e+00 +0.0000000000e+00 -2.8811620530e+01 9.1993584436e+01 8.7365382731e+01 0.0000e+00 0.0000e+00
      -11  1    3    3    0    0 -2.6419379233e+01 -3.1347108370e+01 -3.0289784553e+01 5.0971519994e+01 0.0000000000e+00 0.0000e+00 -1.0000e+00
       11  1    3    3    0    0 +2.6419379233e+01 +3.1347108370e+01 +1.4781640227e+00 4.1022064442e+01 0.0000000000e+00 0.0000e+00 1.0000e+00
<mgrwt>
<rscale>  0 0.87365383E+02</rscale>
<asrwt>0</asrwt>
<pdfrwt beam="2">  1        2 0.92927079E-02 0.87365383E+02</pdfrwt>
<pdfrwt beam="1">  1       -2 0.48601511E-02 0.87365383E+02</pdfrwt>
<totfact> 0.11978948E+05</totfact>
</mgrwt>
</event>
<event>
 5      1 +1.6944000e+03 9.45777800e+01 7.81860800e-03 1.29213000e-01
        4 -1    0    0  501    0 +0.0000000000e+00 +0.0000000000e+00 +1.5075165646e+01 1.5075165646e+01 0.0000000000e+00 0.0000e+00 -1.0000e+00
       -4 -1    0    0    0  501 -0.0000000000e+00 -0.0000000000e+00 -1.4833925841e+02 1.4833925841e+02 0.0000000000e+00 0.0000e+00 1.0000e+00
       23  2    1    2    0    0 +0.0000000000e+00 +0.0000000000e+00 -1.3326409276e+02 1.6341442405e+02 9.4577775240e+01 0.0000e+00 0.0000e+00
      -13  1    3    3    0    0 -2.0084458328e+01 -3.8536441468e+01 -9.8854874205e+01 1.0798485515e+02 0.0000000000e+00 0.0000e+00 1.0000e+00
       13  1    3    3    0    0 +2.0084458328e+01 +3.8536441468e+01 -3.4409218557e+01 5.5429568906e+01 0.0000000000e+00 0.0000e+00 -1.0000e+00
<mgrwt>
<rscale>  0 0.94577775E+02</rscale>
<asrwt>0</asrwt>
<pdfrwt beam="1">  1        4 0.23192562E-02 0.94577775E+02</pdfrwt>
<pdfrwt beam="2">  1       -4 0.22821425E-01 0.94577775E+02</pdfrwt>
<totfact> 0.20851690E+04</totfact>
</mgrwt>
</event>
<event>
 5      1 +1.6944000e+03 9.34030300e+01 7.81860800e-03 1.29481400e-01
        1 -1    0    0  501    0 +0.0000000000e+00 +0.0000000000e+00 +1.1702425923e+02 1.1702425923e+02 0.0000000000e+00 0.0000e+00 -1.0000e+00
       -1 -1    0    0    0  501 -0.0000000000e+00 -0.0000000000e+00 -1.8637428687e+01 1.8637428687e+01 0.0000000000e+00 0.0000e+00 1.0000e+00
       23  2    1    2    0    0 +0.0000000000e+00 +0.0000000000e+00 +9.8386830541e+01 1.3566168791e+02 9.3403025346e+01 0.0000e+00 0.0000e+00
      -11  1    3    3    0    0 +1.2673046738e+01 -1.5296729625e+01 +1.1058232367e+02 1.1235233135e+02 0.0000000000e+00 0.0000e+00 -1.0000e+00
       11  1    3    3    0    0 -1.2673046738e+01 +1.5296729625e+01 -1.2195493130e+01 2.3309356566e+01 0.0000000000e+00 0.0000e+00 1.0000e+00
<mgrwt>
<rscale>  0 0.93403025E+02</rscale>
<asrwt>0</asrwt>
<pdfrwt beam="1">  1        1 0.18003732E-01 0.93403025E+02</pdfrwt>
<pdfrwt beam="2">  1       -1 0.28672968E-02 0.93403025E+02</pdfrwt>
<totfact> 0.10045795E+05</totfact>
</mgrwt>
</event>
<event>
 5      1 +1.6944000e+03 8.92245200e+01 7.81860800e-03 1.30474100e-01
        4 -1    0    0  501    0 +0.0000000000e+00 +0.0000000000e+00 +6.1339963073e+01 6.1339963073e+01 0.0000000000e+00 0.0000e+00 -1.0000e+00
       -4 -1    0    0    0  501 -0.0000000000e+00 -0.0000000000e+00 -3.2446280776e+01 3.2446280776e+01 0.0000000000e+00 0.0000e+00 1.0000e+00
       23  2    1    2    0    0 +0.0000000000e+00 +0.0000000000e+00 +2.8893682297e+01 9.3786243849e+01 8.9224518259e+01 0.0000e+00 0.0000e+00
      -13  1    3    3    0    0 -4.3861057731e+01 +6.9655650362e+00 +1.8899224732e+01 4.8264813032e+01 0.0000000000e+00 0.0000e+00 -1.0000e+00
       13  1    3    3    0    0 +4.3861057731e+01 -6.9655650362e+00 +9.9944575650e+00 4.5521430817e+01 0.0000000000e+00 0.0000e+00 1.0000e+00
<mgrwt>
<rscale>  0 0.89224518E+02</rscale>
<asrwt>0</asrwt>
<pdfrwt beam="1">  1        4 0.94369174E-02 0.89224518E+02</pdfrwt>
<pdfrwt beam="2">  1       -4 0.49917355E-02 0.89224518E+02</pdfrwt>
<totfact> 0.28467412E+04</totfact>
</mgrwt>
</event>
<event>
 5      1 +1.6944000e+03 9.09941400e+01 7.81860800e-03 1.30046200e-01
        2 -1    0    0  501    0 +0.0000000000e+00 +0.0000000000e+00 +3.0018951802e+01 3.0018951802e+01 0.0000000000e+00 0.0000e+00 -1.0000e+00
       -2 -1    0    0    0  501 -0.0000000000e+00 -0.0000000000e+00 -6.8955880389e+01 6.8955880389e+01 0.0000000000e+00 0.0000e+00 1.0000e+00
       23  2    1    2    0    0 +0.0000000000e+00 +0.0000000000e+00 -3.8936928587e+01 9.8974832192e+01 9.0994137171e+01 0.0000e+00 0.0000e+00
      -13  1    3    3    0    0 -1.1351572484e+01 +3.9131805054e+01 -4.1488173812e+01 5.8150020902e+01 0.0000000000e+00 0.0000e+00 1.0000e+00
       13  1    3    3    0    0 +1.1351572484e+01 -3.9131805054e+01 +2.5512452249e+00 4.0824811290e+01 0.0000000000e+00 0.0000e+00 -1.0000e+00
<mgrwt>
<rscale>  0 0.90994137E+02</rscale>
<asrwt>0</asrwt>
<pdfrwt beam="1">  1        2 0.46183003E-02 0.90994137E+02</pdfrwt>
<pdfrwt beam="2">  1       -2 0.10608597E-01 0.90994137E+02</pdfrwt>
<totfact> 0.89009372E+04</totfact>
</mgrwt>
</event>
<event>
 5      1 +1.6944000e+03 9.29380100e+01 7.81860800e-03 1.29588900e-01
        3 -1    0    0  501    0 +0.0000000000e+00 +0.0000000000e+00 +4.6027080979e+01 4.6027080979e+01 0.0000000000e+00 0.0000e+00 -1.0000e+00
       -3 -1    0    0    0  501 -0.0000000000e+00 -0.0000000000e+00 -4.6915171903e+01 4.6915171903e+01 0.0000000000e+00 0.0000e+00 1.0000e+00
       23  2    1    2    0    0 +0.0000000000e+00 +0.0000000000e+00 -8.8809092453e-01 9.2942252882e+01 9.2938009798e+01 0.0000e+00 0.0000e+00
      -11  1    3    3    0    0 +2.7989992617e+00 +4.3551474707e+01 -1.6407326356e+01 4.6623660347e+01 0.0000000000e+00 0.0000e+00 1.0000e+00
       11  1    3    3    0    0 -2.7989992617e+00 -4.3551474707e+01 +1.5519235432e+01 4.6318592535e+01 0.0000000000e+00 0.0000e+00 -1.0000e+00
<mgrwt>
<rscale>  0 0.92938010E+02</rscale>
<asrwt>0</asrwt>
<pdfrwt beam="1">  1        3 0.70810894E-02 0.92938010E+02</pdfrwt>
<pdfrwt beam="2">  1       -3 0.72177188E-02 0.92938010E+02</pdfrwt>
<totfact> 0.33410591E+04</totfact>
</mgrwt>
</event>
<event>
 5      1 +1.6944000e+03 9.10491700e+01 7.81860800e-03 1.30033100e-01
       -2 -1    0    0    0  501 -0.0000000000e+00 +0.0000000000e+00 +1.9508436978e+02 1.9508436978e+02 0.0000000000e+00 0.0000e+00 1.0000e+00
        2 -1    0    0  501    0 +0.0000000000e+00 -0.0000000000e+00 -1.0623545261e+01 1.0623545261e+01 0.0000000000e+00 0.0000e+00 -1.0000e+00
       23  2    1    2    0    0 +0.0000000000e+00 +0.0000000000e+00 +1.8446082452e+02 2.0570791504e+02 9.1049165445e+01 0.0000e+00 0.0000e+00
      -13  1    3    3    0    0 +3.9985042326e+01 -1.4161224800e+01 +5.4890726875e+01 6.9371001106e+01 0.0000000000e+00 0.0000e+00 1.0000e+00
       13  1    3    3    0    0 -3.9985042326e+01 +1.4161224800e+01 +1.2957009764e+02 1.3633691393e+02 0.0000000000e+00 0.0000e+00 -1.0000e+00
<mgrwt>
<rscale>  0 0.91049165E+02</rscale>
<asrwt>0</asrwt>
<pdfrwt beam="2">  1        2 0.16343917E-02 0.91049165E+02</pdfrwt>
<pdfrwt beam="1">  1       -2 0.30012977E-01 0.91049165E+02</pdfrwt>
<totfact> 0.63214992E+04</totfact>
</mgrwt>
</event>
<event>
 4      1 +1.6944000e+03 3.98028700e+01 7.81860800e-03 1.50966700e-01
        2 -1    0    0  501    0 +0.0000000000e+00 +0.0000000000e+00 +5.7382157859e+01 5.7382157859e+01 0.0000000000e+00 0.0000e+00 -1.0000e+00
       -2 -1    0    0    0  501 -0.0000000000e+00 -0.0000000000e+00 -6.9022691401e+00 6.9022691401e+00 0.0000000000e+00 0.0000e+00 1.0000e+00
      -13  1    1    2    0    0 -3.5908563761e+00 -1.1851074266e+01 +5.0402141008e+01 5.1901040731e+01 0.0000000000e+00 0.0000e+00 -1.0000e+00
       13  1    1    2    0    0 +3.5908563761e+00 +1.1851074266e+01 +7.7747711189e-02 1.2383386268e+01 0.0000000000e+00 0.0000e+00 1.0000e+00
<mgrwt>
<rscale>  0 0.39802869E+02</rscale>
<asrwt>0</asrwt>
<pdfrwt beam="1">  1        2 0.88280240E-02 0.39802869E+02</pdfrwt>
<pdfrwt beam="2">  1       -2 0.10618876E-02 0.39802869E+02</pdfrwt>
<totfact> 0.93663344E+05</totfact>
</mgrwt>
</event>
<event>
 5      1 +1.6944000e+03 9.22715000e+01 7.81860800e-03 1.29744200e-01
        3 -1    0    0  501    0 +0.0000000000e+00 +0.0000000000e+00 +5.2445650866e+01 5.2445650866e+01 0.0000000000e+00 0.0000e+00 -1.0000e+00
       -3 -1    0    0    0  501 -0.0000000000e+00 -0.0000000000e+00 -4.0585011373e+01 4.0585011373e+01 0.0000000000e+00 0.0000e+00 1.0000e+00
       23  2    1    2    0    0 +0.0000000000e+00 +0.0000000000e+00 +1.1860639494e+01 9.3030662239e+01 9.2271498023e+01 0.0000e+00 0.0000e+00
      -11  1    3    3    0    0 -3.3029559955e+00 -4.2248564803e+01 -1.2458616501e+01 4.4170893939e+01 0.0000000000e+00 0.0000e+00 1.0000e+00
       11  1    3    3    0    0 +3.3029559955e+00 +4.2248564803e+01 +2.4319255994e+01 4.8859768300e+01 0.0000000000e+00 0.0000e+00 -1.0000e+00
<mgrwt>
<rscale>  0 0.92271498E+02</rscale>
<asrwt>0</asrwt>
<pdfrwt beam="1">  1        3 0.80685617E-02 0.92271498E+02</pdfrwt>
<pdfrwt beam="2">  1       -3 0.62438479E-02 0.92271498E+02</pdfrwt>
<totfact> 0.34068340E+04</totfact>
</mgrwt>
</event>
<event>
 4      1 +1.6944000e+03 3.49811400e+01 7.81860800e-03 1.54876800e-01
        2 -1    0    0  501    0 +0.0000000000e+00 +0.0000000000e+00 +2.8608184384e+00 2.8608184384e+00 0.0000000000e+00 0.0000e+00 -1.0000e+00
       -2 -1    0    0    0  501 -0.0000000000e+00 -0.0000000000e+00 -1.0693445150e+02 1.0693445150e+02 0.0000000000e+00 0.0000e+00 1.0000e+00
      -13  1    1    2    0    0 -1.6334701121e+01 -6.1508806882e+00 -4.8507689612e+01 5.1552417455e+01 0.0000000000e+00 0.0000e+00 1.0000e+00
       13  1    1    2    0    0 +1.6334701121e+01 +6.1508806882e+00 -5.5565943448e+01 5.8242852481e+01 0.0000000000e+00 0.0000e+00 -1.0000e+00
<mgrwt>
<rscale>  0 0.34981141E+02</rscale>
<asrwt>0</asrwt>
<pdfrwt beam="1">  1        2 0.44012589E-03 0.34981141E+02</pdfrwt>
<pdfrwt beam="2">  1       -2 0.16451455E-01 0.34981141E+02</pdfrwt>
<totfact> 0.81890435E+05</totfact>
</mgrwt>
</event>
<event>
 5      1 +1.6944000e+03 9.73525900e+01 7.81860800e-03 1.28596400e-01
        3 -1    0    0  501    0 +0.0000000000e+00 +0.0000000000e+00 +9.8339436536e+01 9.8339436536e+01 0.0000000000e+00 0.0000e+00 -1.0000e+00
       -3 -1    0    0    0  501 -0.0000000000e+00 -0.0000000000e+00 -2.4093911692e+01 2.4093911692e+01 0.0000000000e+00 0.0000e+00 1.0000e+00
       23  2    1    2    0    0 +0.0000000000e+00 +0.0000000000e+00 +7.4245524843e+01 1.2243334823e+02 9.7352590100e+01 0.0000e+00 0.0000e+00
      -11  1    3    3    0    0 +1.3218586774e+01 +3.7608016491e+01 +1.9926440753e+00 3.9913212989e+01 0.0000000000e+00 0.0000e+00 1.0000e+00
       11  1    3    3    0    0 -1.3218586774e+01 -3.7608016491e+01 +7.2252880768e+01 8.2520135239e+01 0.0000000000e+00 0.0000e+00 -1.0000e+00
<mgrwt>
<rscale>  0 0.97352590E+02</rscale>
<asrwt>0</asrwt>
<pdfrwt beam="1">  1        3 0.15129144E-01 0.97352590E+02</pdfrwt>
<pdfrwt beam="2">  1       -3 0.37067557E-02 0.97352590E+02</pdfrwt>
<totfact> 0.27662559E+04</totfact>
</mgrwt>
</event>
<event>
 5      1 +1.6944000e+03 9.38984100e+01 7.81860800e-03 1.29367700e-01
       -1 -1    0    0    0  501 -0.0000000000e+00 +0.0000000000e+00 +1.2917557452e+02 1.2917557452e+02 0.0000000000e+00 0.0000e+00 1.0000e+00
        1 -1    0    0  501    0 +0.0000000000e+00 -0.0000000000e+00 -1.7063814170e+01 1.7063814170e+01 0.0000000000e+00 0.0000e+00 -1.0000e+00
       23  2    1    2    0    0 +0.0000000000e+00 +0.0000000000e+00 +1.1211176035e+02 1.4623938869e+02 9.3898413170e+01 0.0000e+00 0.0000e+00
      -11  1    3    3    0    0 -4.2215145121e+01 -1.6856052100e+01 +3.7761447465e+01 5.9094601146e+01 0.0000000000e+00 0.0000e+00 -1.0000e+00
       11  1    3    3    0    0 +4.2215145121e+01 +1.6856052100e+01 +7.4350312890e+01 8.7144787548e+01 0.0000000000e+00 0.0000e+00 1.0000e+00
<mgrwt>
<rscale>  0 0.93898413E+02</rscale>
<asrwt>0</asrwt>
<pdfrwt beam="2">  1        1 0.26252023E-02 0.93898413E+02</pdfrwt>
<pdfrwt beam="1">  1       -1 0.19873165E-01 0.93898413E+02</pdfrwt>
<totfact> 0.71652113E+04</totfact>
</mgrwt>
</event>
<event>
 5      1 +1.6944000e+03 9.29852400e+01 7.81860800e-03 1.29577900e-01
        2 -1    0    0  501    0 +0.0000000000e+00 +0.0000000000e+00 +1.5764877941e+02 1.5764877941e+02 0.0000000000e+00 0.0000e+00 -1.0000e+00
       -2 -1    0    0    0  501 -0.0000000000e+00 -0.0000000000e+00 -1.3711260744e+01 1.3711260744e+01 0.0000000000e+00 0.0000e+00 1.0000e+00
       23  2    1    2    0    0 +0.0000000000e+00 +0.0000000000e+00 +1.4393751866e+02 1.7136004015e+02 9.2985235827e+01 0.0000e+00 0.0000e+00
      -13  1    3    3    0    0 -9.3219290320e+00 -2.9071239705e+01 +7.3490794657e+00 3.1401342453e+01 0.0000000000e+00 0.0000e+00 1.0000e+00
       13  1    3    3    0    0 +9.3219290320e+00 +2.9071239705e+01 +1.3658843920e+02 1.3995869770e+02 0.0000000000e+00 0.0000e+00 -1.0000e+00
<mgrwt>
<rscale>  0 0.92985236E+02</rscale>
<asrwt>0</asrwt>
<pdfrwt beam="1">  1        2 0.24253657E-01 0.92985236E+02</pdfrwt>
<pdfrwt beam="2">  1       -2 0.21094248E-02 0.92985236E+02</pdfrwt>
<totfact> 0.13482278E+05</totfact>
</mgrwt>
</event>
<event>
 5      1 +1.6944000e+03 8.90961400e+01 7.81860800e-03 1.30505500e-01
       -1 -1    0    0    0  501 -0.0000000000e+00 +0.0000000000e+00 +3.1307081915e+01 3.1307081915e+01 0.0000000000e+00 0.0000e+00 1.0000e+00
        1 -1    0    0  501    0 +0.0000000000e+00 -0.0000000000e+00 -6.3389195214e+01 6.3389195214e+01 0.0000000000e+00 0.0000e+00 -1.0000e+00
       23  2    1    2    0    0 +0.0000000000e+00 +0.0000000000e+00 -3.2082113300e+01 9.4696277129e+01 8.9096144183e+01 0.0000e+00 0.0000e+00
      -13  1    3    3    0    0 +1.1684339071e+01 -3.7007285658e+01 +7.2077322440e+00 3.9471690810e+01 0.0000000000e+00 0.0000e+00 1.0000e+00
       13  1    3    3    0    0 -1.1684339071e+01 +3.7007285658e+01 -3.9289845544e+01 5.5224586319e+01 0.0000000000e+00 0.0000e+00 -1.0000e+00
<mgrwt>
<rscale>  0 0.89096144E+02</rscale>
<asrwt>0</asrwt>
<pdfrwt beam="2">  1        1 0.97521838E-02 0.89096144E+02</pdfrwt>
<pdfrwt beam="1">  1       -1 0.48164742E-02 0.89096144E+02</pdfrwt>
<totfact> 0.10357375E+05</totfact>
</mgrwt>
</event>
<event>
 5      1 +1.6944000e+03 9.19685500e+01 7.81860800e-03 1.29815300e-01
       -2 -1    0    0    0  501 -0.0000000000e+00 +0.0000000000e+00 +2.8868963369e+01 2.8868963369e+01 0.0000000000e+00 0.0000e+00 1.0000e+00
        2 -1    0    0  501    0 +0.0000000000e+00 -0.0000000000e+00 -7.3246598338e+01 7.3246598338e+01 0.0000000000e+00 0.0000e+00 -1.0000e+00
       23  2    1    2    0    0 +0.0000000000e+00 +0.0000000000e+00 -4.4377634970e+01 1.0211556171e+02 9.1968546022e+01 0.0000e+00 0.0000e+00
      -13  1    3    3    0    0 +2.1487645876e+01 -6.3286510507e+00 +2.2401496114e+01 3.1679611386e+01 0.0000000000e+00 0.0000e+00 1.0000e+00
       13  1    3    3    0    0 -2.1487645876e+01 +6.3286510507e+00 -6.6779131084e+01 7.0435950322e+01 0.0000000000e+00 0.0000e+00 -1.0000e+00
<mgrwt>
<rscale>  0 0.91968546E+02</rscale>
<asrwt>0</asrwt>
<pdfrwt beam="2">  1        2 0.11268707E-01 0.91968546E+02</pdfrwt>
<pdfrwt beam="1">  1       -2 0.44413790E-02 0.91968546E+02</pdfrwt>
<totfact> 0.10934951E+05</totfact>
</mgrwt>
</event>
<event>
 5      1 +1.6944000e+03 9.03476200e+01 7.81860800e-03 1.30201200e-01
        2 -1    0    0  501    0 +0.0000000000e+00 +0.0000000000e+00 +5.0113068514e+01 5.0113068514e+01 0.0000000000e+00 0.0000e+00 1.0000e+00
       -2 -1    0    0    0  501 -0.0000000000e+00 -0.0000000000e+00 -4.0721374262e+01 4.0721374262e+01 0.0000000000e+00 0.0000e+00 -1.0000e+00
       23  2    1    2    0    0 +0.0000000000e+00 +0.0000000000e+00 +9.3916942517e+00 9.0834442776e+01 9.0347617974e+01 0.0000e+00 0.0000e+00
      -11  1    3    3    0    0 -1.2755759947e+01 +6.3998483036e+00 +4.7787096248e+01 4.9872578016e+01 0.0000000000e+00 0.0000e+00 1.0000e+00
       11  1    3    3    0    0 +1.2755759947e+01 -6.3998483036e+00 -3.8395401997e+01 4.0961864760e+01 0.0000000000e+00 0.0000e+00 -1.0000e+00
<mgrwt>
<rscale>  0 0.90347618E+02</rscale>
<asrwt>0</asrwt>
<pdfrwt beam="1">  1        2 0.77097028E-02 0.90347618E+02</pdfrwt>
<pdfrwt beam="2">  1       -2 0.62648268E-02 0.90347618E+02</pdfrwt>
<totfact> 0.10380249E+05</totfact>
</mgrwt>
</event>
<event>
 4      1 +1.6944000e+03 2.27370200e+01 7.81860800e-03 1.69580900e-01
        2 -1    0    0  501    0 +0.0000000000e+00 +0.0000000000e+00 +7.1120668593e+01 7.1120668593e+01 0.0000000000e+00 0.0000e+00 -1.0000e+00
       -2 -1    0    0    0  501 -0.0000000000e+00 -0.0000000000e+00 -1.8172358690e+00 1.8172358690e+00 0.0000000000e+00 0.0000e+00 1.0000e+00
      -11  1    1    2    0    0 -3.6913825703e+00 -9.3804643014e+00 +1.7791623185e+01 2.0448991939e+01 0.0000000000e+00 0.0000e+00 1.0000e+00
       11  1    1    2    0    0 +3.6913825703e+00 +9.3804643014e+00 +5.1511809540e+01 5.2488912523e+01 0.0000000000e+00 0.0000e+00 -1.0000e+00
<mgrwt>
<rscale>  0 0.22737021E+02</rscale>
<asrwt>0</asrwt>
<pdfrwt beam="1">  1        2 0.10941639E-01 0.22737021E+02</pdfrwt>
<pdfrwt beam="2">  1       -2 0.27957480E-03 0.22737021E+02</pdfrwt>
<totfact> 0.36872872E+06</totfact>
</mgrwt>
</event>
<event>
 4      1 +1.6944000e+03 3.49475600e+01 7.81860800e-03 1.54906700e-01
        3 -1    0    0  501    0 +0.0000000000e+00 +0.0000000000e+00 +9.4764820414e+00 9.4764820414e+00 0.0000000000e+00 0.0000e+00 -1.0000e+00
       -3 -1    0    0    0  501 -0.0000000000e+00 -0.0000000000e+00 -3.2220080254e+01 3.2220080254e+01 0.0000000000e+00 0.0000e+00 1.0000e+00
      -11  1    1    2    0    0 -1.2760002010e+01 -6.9827869996e-03 +2.8716162122e+00 1.3079139105e+01 0.0000000000e+00 0.0000e+00 -1.0000e+00
       11  1    1    2    0    0 +1.2760002010e+01 +6.9827869996e-03 -2.5615214425e+01 2.8617423190e+01 0.0000000000e+00 0.0000e+00 1.0000e+00
<mgrwt>
<rscale>  0 0.34947561E+02</rscale>
<asrwt>0</asrwt>
<pdfrwt beam="1">  1        3 0.14579203E-02 0.34947561E+02</pdfrwt>
<pdfrwt beam="2">  1       -3 0.49569353E-02 0.34947561E+02</pdfrwt>
<totfact> 0.46705834E+05</totfact>
</mgrwt>
</event>
<event>
 4      1 +1.6944000e+03 2.98123000e+01 7.81860800e-03 1.60017300e-01
       -1 -1    0    0    0  501 -0.0000000000e+00 +0.0000000000e+00 +6.2661767958e+00 6.2661767958e+00 0.0000000000e+00 0.0000e+00 -1.0000e+00
        1 -1    0    0  501    0 +0.0000000000e+00 -0.0000000000e+00 -3.5459145793e+01 3.5459145793e+01 0.0000000000e+00 0.0000e+00 1.0000e+00
      -13  1    1    2    0    0 +2.5816551048e+00 -9.9944991718e+00 +4.5416136550e-01 1.0332532087e+01 0.0000000000e+00 0.0000e+00 -1.0000e+00
       13  1    1    2    0    0 -2.5816551048e+00 +9.9944991718e+00 -2.9647130362e+01 3.1392790502e+01 0.0000000000e+00 0.0000e+00 1.0000e+00
<mgrwt>
<rscale>  0 0.29812298E+02</rscale>
<asrwt>0</asrwt>
<pdfrwt beam="2">  1        1 0.54552532E-02 0.29812298E+02</pdfrwt>
<pdfrwt beam="1">  1       -1 0.96402719E-03 0.29812298E+02</pdfrwt>
<totfact> 0.16250393E+06</totfact>
</mgrwt>
</event>
<event>
 5      1 +1.6944000e+03 9.59738900e+01 7.81860800e-03 1.28899800e-01
       -1 -1    0    0    0  501 -0.0000000000e+00 +0.0000000000e+00 +1.4947791290e+02 1.4947791290e+02 0.0000000000e+00 0.0000e+00 1.0000e+00
        1 -1    0    0  501    0 +0.0000000000e+00 -0.0000000000e+00 -1.5405263835e+01 1.5405263835e+01 0.0000000000e+00 0.0000e+00 -1.0000e+00
       23  2    1    2    0    0 +0.0000000000e+00 +0.0000000000e+00 +1.3407264907e+02 1.6488317674e+02 9.5973885735e+01 0.0000e+00 0.0000e+00
      -11  1    3    3    0    0 +2.0773039891e+01 +2.6588753965e+01 +8.4158523868e+00 3.4775100217e+01 0.0000000000e+00 0.0000e+00 -1.0000e+00
       11  1    3    3    0    0 -2.0773039891e+01 -2.6588753965e+01 +1.2565679668e+02 1.3010807652e+02 0.0000000000e+00 0.0000e+00 1.0000e+00
<mgrwt>
<rscale>  0 0.95973886E+02</rscale>
<asrwt>0</asrwt>
<pdfrwt beam="2">  1        1 0.23700407E-02 0.95973886E+02</pdfrwt>
<pdfrwt beam="1">  1       -1 0.22996601E-01 0.95973886E+02</pdfrwt>
<totfact> 0.65505649E+04</totfact>
</mgrwt>
</event>
<event>
 5      1 +1.6944000e+03 9.20078400e+01 7.81860800e-03 1.29806100e-01
       -2 -1    0    0    0  501 -0.0000000000e+00 +0.0000000000e+00 +1.1517151568e+01 1.1517151568e+01 0.0000000000e+00 0.0000e+00 1.0000e+00
        2 -1    0    0  501    0 +0.0000000000e+00 -0.0000000000e+00 -1.8375728460e+02 1.8375728460e+02 0.0000000000e+00 0.0000e+00 -1.0000e+00
       23  2    1    2    0    0 +0.0000000000e+00 +0.0000000000e+00 -1.7224013303e+02 1.9527443617e+02 9.2007836589e+01 0.0000e+00 0.0000e+00
      -11  1    3    3    0    0 +1.3207264481e+01 +4.3287746196e+01 -1.0363438123e+02 1.1308556839e+02 0.0000000000e+00 0.0000e+00 -1.0000e+00
       11  1    3    3    0    0 -1.3207264481e+01 -4.3287746196e+01 -6.8605751803e+01 8.2188867776e+01 0.0000000000e+00 0.0000e+00 1.0000e+00
<mgrwt>
<rscale>  0 0.92007837E+02</rscale>
<asrwt>0</asrwt>
<pdfrwt beam="2">  1        2 0.28270353E-01 0.92007837E+02</pdfrwt>
<pdfrwt beam="1">  1       -2 0.17718694E-02 0.92007837E+02</pdfrwt>
<totfact> 0.14641186E+05</totfact>
</mgrwt>
</event>
<event>
 5      1 +1.6944000e+03 9.10777600e+01 7.81860800e-03 1.30026300e-01
       -3 -1    0    0    0  501 -0.0000000000e+00 +0.0000000000e+00 +3.4017276562e+01 3.4017276562e+01 0.0000000000e+00 0.0000e+00 1.0000e+00
        3 -1    0    0  501    0 +0.0000000000e+00 -0.0000000000e+00 -6.0962837552e+01 6.0962837552e+01 0.0000000000e+00 0.0000e+00 -1.0000e+00
       23  2    1    2    0    0 +0.0000000000e+00 +0.0000000000e+00 -2.6945560989e+01 9.4980114114e+01 9.1077762489e+01 0.0000e+00 0.0000e+00
      -13  1    3    3    0    0 +2.0577748643e+01 -1.3857023114e+01 -5.3297073258e+01 5.8788084223e+01 0.0000000000e+00 0.0000e+00 -1.0000e+00
       13  1    3    3    0    0 -2.0577748643e+01 +1.3857023114e+01 +2.6351512268e+01 3.6192029891e+01 0.0000000000e+00 0.0000e+00 1.0000e+00
<mgrwt>
<rscale>  0 0.91077762E+02</rscale>
<asrwt>0</asrwt>
<pdfrwt beam="2">  1        3 0.93788980E-02 0.91077762E+02</pdfrwt>
<pdfrwt beam="1">  1       -3 0.52334272E-02 0.91077762E+02</pdfrwt>
<totfact> 0.35151947E+04</totfact>
</mgrwt>
</event>
<event>
 4      1 +1.6944000e+03 2.92894400e+01 7.81860800e-03 1.60607800e-01
       -3 -1    0    0    0  501 -0.0000000000e+00 +0.0000000000e+00 +2.6463238753e+00 2.6463238753e+00 0.0000000000e+00 0.0000e+00 -1.0000e+00
        3 -1    0    0  501    0 +0.0000000000e+00 -0.0000000000e+00 -8.1043675130e+01 8.1043675130e+01 0.0000000000e+00 0.0000e+00 1.0000e+00
      -11  1    1    2    0    0 +2.7414237828e+00 -1.2490983291e+01 -5.9589732095e+01 6.0946503091e+01 0.0000000000e+00 0.0000e+00 1.0000e+00
       11  1    1    2    0    0 -2.7414237828e+00 +1.2490983291e+01 -1.8807619160e+01 2.2743495914e+01 0.0000000000e+00 0.0000e+00 -1.0000e+00
<mgrwt>
<rscale>  0 0.29289439E+02</rscale>
<asrwt>0</asrwt>
<pdfrwt beam="2">  1        3 0.12468257E-01 0.29289439E+02</pdfrwt>
<pdfrwt beam="1">  1       -3 0.40712677E-03 0.29289439E+02</pdfrwt>
<totfact> 0.63073952E+05</totfact>
</mgrwt>
</event>
<event>
 5      1 +1.6944000e+03 9.00273400e+01 7.81860800e-03 1.30278500e-01
       -1 -1    0    0    0  501 -0.0000000000e+00 +0.0000000000e+00 +9.1747755556e+01 9.1747755556e+01 0.0000000000e+00 0.0000e+00 1.0000e+00
        1 -1    0    0  501    0 +0.0000000000e+00 -0.0000000000e+00 -2.2084797596e+01 2.2084797596e+01 0.0000000000e+00 0.0000e+00 -1.0000e+00
       23  2    1    2    0    0 +0.0000000000e+00 +0.0000000000e+00 +6.9662957960e+01 1.1383255315e+02 9.0027342765e+01 0.0000e+00 0.0000e+00
      -11  1    3    3    0    0 -1.2533587108e+01 -4.3218786116e+01 +3.6259958134e+01 5.7790473635e+01 0.0000000000e+00 0.0000e+00 -1.0000e+00
       11  1    3    3    0    0 +1.2533587108e+01 +4.3218786116e+01 +3.3402999827e+01 5.6042079517e+01 0.0000000000e+00 0.0000e+00 1.0000e+00
<mgrwt>
<rscale>  0 0.90027343E+02</rscale>
<asrwt>0</asrwt>
<pdfrwt beam="2">  1        1 0.33976612E-02 0.90027343E+02</pdfrwt>
<pdfrwt beam="1">  1       -1 0.14115039E-01 0.90027343E+02</pdfrwt>
<totfact> 0.85394984E+04</totfact>
</mgrwt>
</event>
<event>
 5      1 +1.6944000e+03 9.36284400e+01 7.81860800e-03 1.29429500e-01
       -2 -1    0    0    0  501 -0.0000000000e+00 +0.0000000000e+00 +5.1226535434e+00 5.1226535434e+00 0.0000000000e+00 0.0000e+00 1.0000e+00
        2 -1    0    0  501    0 +0.0000000000e+00 -0.0000000000e+00 -4.2781954156e+02 4.2781954156e+02 0.0000000000e+00 0.0000e+00 -1.0000e+00
       23  2    1    2    0    0 +0.0000000000e+00 +0.0000000000e+00 -4.2269688801e+02 4.3294219510e+02 9.3628442057e+01 0.0000e+00 0.0000e+00
      -13  1    3    3    0    0 -1.4225437995e+01 +4.3275692307e+01 -2.6124158851e+02 2.6518355190e+02 0.0000000000e+00 0.0000e+00 1.0000e+00
       13  1    3    3    0    0 +1.4225437995e+01 -4.3275692307e+01 -1.6145529950e+02 1.6775864320e+02 0.0000000000e+00 0.0000e+00 -1.0000e+00
<mgrwt>
<rscale>  0 0.93628442E+02</rscale>
<asrwt>0</asrwt>
<pdfrwt beam="2">  1        2 0.65818383E-01 0.93628442E+02</pdfrwt>
<pdfrwt beam="1">  1       -2 0.78810064E-03 0.93628442E+02</pdfrwt>
<totfact> 0.19051314E+05</totfact>
</mgrwt>
</event>
<event>
 5      1 +1.6944000e+03 8.57541200e+01 7.81860800e-03 1.31347200e-01
        2 -1    0    0  501    0 +0.0000000000e+00 +0.0000000000e+00 +2.5058088496e+01 2.5058088496e+01 0.0000000000e+00 0.0000e+00 1.0000e+00
       -2 -1    0    0    0  501 -0.0000000000e+00 -0.0000000000e+00 -7.3367225881e+01 7.3367225881e+01 0.0000000000e+00 0.0000e+00 -1.0000e+00
       23  2    1    2    0    0 +0.0000000000e+00 +0.0000000000e+00 -4.8309137384e+01 9.8425314377e+01 8.5754123839e+01 0.0000e+00 0.0000e+00
      -13  1    3    3    0    0 -1.0549545046e+01 +3.7315392781e+01 -3.1561404196e+00 3.8906203379e+01 0.0000000000e+00 0.0000e+00 1.0000e+00
       13  1    3    3    0    0 +1.0549545046e+01 -3.7315392781e+01 -4.5152996965e+01 5.9519110998e+01 0.0000000000e+00 0.0000e+00 -1.0000e+00
<mgrwt>
<rscale>  0 0.85754124E+02</rscale>
<asrwt>0</asrwt>
<pdfrwt beam="1">  1        2 0.38550905E-02 0.85754124E+02</pdfrwt>
<pdfrwt beam="2">  1       -2 0.11287265E-01 0.85754124E+02</pdfrwt>
<totfact> 0.10120065E+05</totfact>
</mgrwt>
</event>
<event>
 5      1 +1.6944000e+03 9.00519500e+01 7.81860800e-03 1.30272600e-01
        2 -1    0    0  501    0 +0.0000000000e+00 +0.0000000000e+00 +1.3759521753e+01 1.3759521753e+01 0.0000000000e+00 0.0000e+00 -1.0000e+00
       -2 -1    0    0    0  501 -0.0000000000e+00 -0.0000000000e+00 -1.4734075249e+02 1.4734075249e+02 0.0000000000e+00 0.0000e+00 1.0000e+00
       23  2    1    2    0    0 +0.0000000000e+00 +0.0000000000e+00 -1.3358123074e+02 1.6110027425e+02 9.0051946987e+01 0.0000e+00 0.0000e+00
      -13  1    3    3    0    0 -3.2482015403e+01 -1.1824353902e+01 -1.1840610666e+02 1.2334870394e+02 0.0000000000e+00 0.0000e+00 1.0000e+00
       13  1    3    3    0    0 +3.2482015403e+01 +1.1824353902e+01 -1.5175124086e+01 3.7751570310e+01 0.0000000000e+00 0.0000e+00 -1.0000e+00
<mgrwt>
<rscale>  0 0.90051947E+02</rscale>
<asrwt>0</asrwt>
<pdfrwt beam="1">  1        2 0.21168495E-02 0.90051947E+02</pdfrwt>
<pdfrwt beam="2">  1       -2 0.22667808E-01 0.90051947E+02</pdfrwt>
<totfact> 0.72552281E+04</totfact>
</mgrwt>
</event>
<event>
 4      1 +1.6944000e+03 2.38521100e+01 7.81860800e-03 1.67805900e-01
        3 -1    0    0  501    0 +0.0000000000e+00 +0.0000000000e+00 +4.5350876373e+00 4.5350876373e+00 0.0000000000e+00 0.0000e+00 1.0000e+00
       -3 -1    0    0    0  501 -0.0000000000e+00 -0.0000000000e+00 -3.1362304972e+01 3.1362304972e+01 0.0000000000e+00 0.0000e+00 -1.0000e+00
      -11  1    1    2    0    0 +6.4667379737e+00 +9.2954679248e+00 -7.7811372621e+00 1.3739378481e+01 0.0000000000e+00 0.0000e+00 1.0000e+00
       11  1    1    2    0    0 -6.4667379737e+00 -9.2954679248e+00 -1.9046080072e+01 2.2158014128e+01 0.0000000000e+00 0.0000e+00 -1.0000e+00
<mgrwt>
<rscale>  0 0.23852111E+02</rscale>
<asrwt>0</asrwt>
<pdfrwt beam="1">  1        3 0.69770581E-03 0.23852111E+02</pdfrwt>
<pdfrwt beam="2">  1       -3 0.48249699E-02 0.23852111E+02</pdfrwt>
<totfact> 0.11506419E+06</totfact>
</mgrwt>
</event>
<event>
 5      1 +1.6944000e+03 9.18708700e+01 7.81860800e-03 1.29838300e-01
       -2 -1    0    0    0  501 -0.0000000000e+00 +0.0000000000e+00 +2.0953783882e+01 2.0953783882e+01 0.0000000000e+00 0.0000e+00 1.0000e+00
        2 -1    0    0  501    0 +0.0000000000e+00 -0.0000000000e+00 -1.0070085626e+02 1.0070085626e+02 0.0000000000e+00 0.0000e+00 -1.0000e+00
       23  2    1    2    0    0 +0.0000000000e+00 +0.0000000000e+00 -7.9747072380e+01 1.2165464014e+02 9.1870865432e+01 0.0000e+00 0.0000e+00
      -11  1    3    3    0    0 +2.9686740137e+01 -1.4310965426e+01 +2.4997240757e+00 3.3050792605e+01 0.0000000000e+00 0.0000e+00 1.0000e+00
       11  1    3    3    0    0 -2.9686740137e+01 +1.4310965426e+01 -8.2246796456e+01 8.8603847539e+01 0.0000000000e+00 0.0000e+00 -1.0000e+00
<mgrwt>
<rscale>  0 0.91870865E+02</rscale>
<asrwt>0</asrwt>
<pdfrwt beam="2">  1        2 0.15492440E-01 0.91870865E+02</pdfrwt>
<pdfrwt beam="1">  1       -2 0.32236590E-02 0.91870865E+02</pdfrwt>
<totfact> 0.12039473E+05</totfact>
</mgrwt>
</event>
<event>
 5      1 +1.6944000e+03 1.07446800e+02 7.81860800e-03 1.26537200e-01
        1 -1    0    0  501    0 +0.0000000000e+00 +0.0000000000e+00 +2.7101638261e+01 2.7101638261e+01 0.0000000000e+00 0.0000e+00 -1.0000e+00
       -1 -1    0    0    0  501 -0.0000000000e+00 -0.0000000000e+00 -1.0649561870e+02 1.0649561870e+02 0.0000000000e+00 0.0000e+00 1.0000e+00
       23  2    1    2    0    0 +0.0000000000e+00 +0.0000000000e+00 -7.9393980440e+01 1.3359725696e+02 1.0744683773e+02 0.0000e+00 0.0000e+00
      -13  1    3    3    0    0 -4.3987019300e+00 -1.7292815661e+01 -1.0270355857e+02 1.0424207881e+02 0.0000000000e+00 0.0000e+00 1.0000e+00
       13  1    3    3    0    0 +4.3987019300e+00 +1.7292815661e+01 +2.3309578125e+01 2.9355178155e+01 0.0000000000e+00 0.0000e+00 -1.0000e+00
<mgrwt>
<rscale>  0 0.10744684E+03</rscale>
<asrwt>0</asrwt>
<pdfrwt beam="1">  1        1 0.41694829E-02 0.10744684E+03</pdfrwt>
<pdfrwt beam="2">  1       -1 0.16383941E-01 0.10744684E+03</pdfrwt>
<totfact> 0.52589758E+04</totfact>
</mgrwt>
</event>
<event>
 5      1 +1.6944000e+03 9.36163400e+01 7.81860800e-03 1.29432300e-01
        3 -1    0    0  501    0 +0.0000000000e+00 +0.0000000000e+00 +5.3717510613e+01 5.3717510613e+01 0.0000000000e+00 0.0000e+00 -1.0000e+00
       -3 -1    0    0    0  501 -0.0000000000e+00 -0.0000000000e+00 -4.0787534271e+01 4.0787534271e+01 0.0000000000e+00 0.0000e+00 1.0000e+00
       23  2    1    2    0    0 +0.0000000000e+00 +0.0000000000e+00 +1.2929976342e+01 9.4505044883e+01 9.3616340562e+01 0.0000e+00 0.0000e+00
      -11  1    3    3    0    0 +3.4998858934e+01 -6.8335428119e+00 -2.4144255520e+01 4.3064631761e+01 0.0000000000e+00 0.0000e+00 -1.0000e+00
       11  1    3    3    0    0 -3.4998858934e+01 +6.8335428119e+00 +3.7074231862e+01 5.1440413123e+01 0.0000000000e+00 0.0000e+00 1.0000e+00
<mgrwt>
<rscale>  0 0.93616341E+02</rscale>
<asrwt>0</asrwt>
<pdfrwt beam="1">  1        3 0.82642324E-02 0.93616341E+02</pdfrwt>
<pdfrwt beam="2">  1       -3 0.62750053E-02 0.93616341E+02</pdfrwt>
<totfact> 0.32642766E+04</totfact>
</mgrwt>
</event>
<event>
 5      1 +1.6944000e+03 8.67613000e+01 7.81860800e-03 1.31089000e-01
        1 -1    0    0  501    0 +0.0000000000e+00 +0.0000000000e+00 +3.0343594977e+02 3.0343594977e+02 0.0000000000e+00 0.0000e+00 -1.0000e+00
       -1 -1    0    0    0  501 -0.0000000000e+00 -0.0000000000e+00 -6.2019044205e+00 6.2019044205e+00 0.0000000000e+00 0.0000e+00 1.0000e+00
       23  2    1    2    0    0 +0.0000000000e+00 +0.0000000000e+00 +2.9723404535e+02 3.0963785419e+02 8.6761299165e+01 0.0000e+00 0.0000e+00
      -11  1    3    3    0    0 +3.0630016285e+01 +2.2062791264e+01 +7.2330778394e+01 8.1588639890e+01 0.0000000000e+00 0.0000e+00 1.0000e+00
       11  1    3    3    0    0 -3.0630016285e+01 -2.2062791264e+01 +2.2490326696e+02 2.2804921430e+02 0.0000000000e+00 0.0000e+00 -1.0000e+00
<mgrwt>
<rscale>  0 0.86761299E+02</rscale>
<asrwt>0</asrwt>
<pdfrwt beam="1">  1        1 0.46682442E-01 0.86761299E+02</pdfrwt>
<pdfrwt beam="2">  1       -1 0.95413938E-03 0.86761299E+02</pdfrwt>
<totfact> 0.14649523E+05</totfact>
</mgrwt>
</event>
<event>
 4      1 +1.6944000e+03 3.12101200e+01 7.81860800e-03 1.58508500e-01
       -2 -1    0    0    0  501 -0.0000000000e+00 +0.0000000000e+00 +3.4531360424e+01 3.4531360424e+01 0.0000000000e+00 0.0000e+00 -1.0000e+00
        2 -1    0    0  501    0 +0.0000000000e+00 -0.0000000000e+00 -7.0520798817e+00 7.0520798817e+00 0.0000000000e+00 0.0000e+00 1.0000e+00
      -13  1    1    2    0    0 -4.2606946797e+00 +1.2295955471e+01 +2.2646998139e+00 1.3208819226e+01 0.0000000000e+00 0.0000e+00 1.0000e+00
       13  1    1    2    0    0 +4.2606946797e+00 -1.2295955471e+01 +2.5214580728e+01 2.8374621079e+01 0.0000000000e+00 0.0000e+00 -1.0000e+00
<mgrwt>
<rscale>  0 0.31210121E+02</rscale>
<asrwt>0</asrwt>
<pdfrwt beam="2">  1        2 0.10849354E-02 0.31210121E+02</pdfrwt>
<pdfrwt beam="1">  1       -2 0.53125169E-02 0.31210121E+02</pdfrwt>
<totfact> 0.13063889E+06</totfact>
</mgrwt>
</event>
<event>
 5      1 +1.6944000e+03 9.16605600e+01 7.81860800e-03 1.29888000e-01
        2 -1    0    0  501    0 +0.0000000000e+00 +0.0000000000e+00 +1.2115135593e+02 1.2115135593e+02 0.0000000000e+00 0.0000e+00 -1.0000e+00
       -2 -1    0    0    0  501 -0.0000000000e+00 -0.0000000000e+00 -1.7337111800e+01 1.7337111800e+01 0.0000000000e+00 0.0000e+00 1.0000e+00
       23  2    1    2    0    0 +0.0000000000e+00 +0.0000000000e+00 +1.0381424413e+02 1.3848846773e+02 9.1660560821e+01 0.0000e+00 0.0000e+00
      -13  1    3    3    0    0 -1.0386777604e+01 +1.7636140353e+01 +1.1386250137e+02 1.1568745746e+02 0.0000000000e+00 0.0000e+00 -1.0000e+00
       13  1    3    3    0    0 +1.0386777604e+01 -1.7636140353e+01 -1.0048257243e+01 2.2801010266e+01 0.0000000000e+00 0.0000e+00 1.0000e+00
<mgrwt>
<rscale>  0 0.91660561E+02</rscale>
<asrwt>0</asrwt>
<pdfrwt beam="1">  1        2 0.18638670E-01 0.91660561E+02</pdfrwt>
<pdfrwt beam="2">  1       -2 0.26672480E-02 0.91660561E+02</pdfrwt>
<totfact> 0.12838980E+05</totfact>
</mgrwt>
</event>
<event>
 5      1 +1.6944000e+03 9.13462700e+01 7.81860800e-03 1.29962400e-01
       -4 -1    0    0    0  501 -0.0000000000e+00 +0.0000000000e+00 +1.0948472785e+02 1.0948472785e+02 0.0000000000e+00 0.0000e+00 1.0000e+00
        4 -1    0    0  501    0 +0.0000000000e+00 -0.0000000000e+00 -1.9053205983e+01 1.9053205983e+01 0.0000000000e+00 0.0000e+00 -1.0000e+00
       23  2    1    2    0    0 +0.0000000000e+00 +0.0000000000e+00 +9.0431521864e+01 1.2853793383e+02 9.1346265859e+01 0.0000e+00 0.0000e+00
      -11  1    3    3    0    0 +1.5028584140e+01 +3.8727797136e+01 +7.1926961862e+01 8.3061353559e+01 0.0000000000e+00 0.0000e+00 1.0000e+00
       11  1    3    3    0    0 -1.5028584140e+01 -3.8727797136e+01 +1.8504560001e+01 4.5476580270e+01 0.0000000000e+00 0.0000e+00 -1.0000e+00
<mgrwt>
<rscale>  0 0.91346266E+02</rscale>
<asrwt>0</asrwt>
<pdfrwt beam="2">  1        4 0.29312625E-02 0.91346266E+02</pdfrwt>
<pdfrwt beam="1">  1       -4 0.16843804E-01 0.91346266E+02</pdfrwt>
<totfact> 0.24673382E+04</totfact>
</mgrwt>
</event>
<event>
 5      1 +1.6944000e+03 9.01567400e+01 7.81860800e-03 1.30247300e-01
       -1 -1    0    0    0  501 -0.0000000000e+00 +0.0000000000e+00 +7.3951188551e+00 7.3951188551e+00 0.0000000000e+00 0.0000e+00 1.0000e+00
        1 -1    0    0  501    0 +0.0000000000e+00 -0.0000000000e+00 -2.7478385377e+02 2.7478385377e+02 0.0000000000e+00 0.0000e+00 -1.0000e+00
       23  2    1    2    0    0 +0.0000000000e+00 +0.0000000000e+00 -2.6738873492e+02 2.8217897263e+02 9.0156735924e+01 0.0000e+00 0.0000e+00
      -13  1    3    3    0    0 +1.2455838978e+01 +4.1445108489e+01 -1.7318713105e+02 1.7851226093e+02 0.0000000000e+00 0.0000e+00 1.0000e+00
       13  1    3    3    0    0 -1.2455838978e+01 -4.1445108489e+01 -9.4201603869e+01 1.0366671170e+02 0.0000000000e+00 0.0000e+00 -1.0000e+00
<mgrwt>
<rscale>  0 0.90156736E+02</rscale>
<asrwt>0</asrwt>
<pdfrwt beam="2">  1        1 0.42274434E-01 0.90156736E+02</pdfrwt>
<pdfrwt beam="1">  1       -1 0.11377107E-02 0.90156736E+02</pdfrwt>
<totfact> 0.12980665E+05</totfact>
</mgrwt>
</event>
<event>
 5      1 +1.6944000e+03 9.07249200e+01 7.81860800e-03 1.30110600e-01
       -3 -1    0    0    0  501 -0.0000000000e+00 +0.0000000000e+00 +1.7908032772e+01 1.7908032772e+01 0.0000000000e+00 0.0000e+00 1.0000e+00
        3 -1    0    0  501    0 +0.0000000000e+00 -0.0000000000e+00 -1.1490670178e+02 1.1490670178e+02 0.0000000000e+00 0.0000e+00 -1.0000e+00
       23  2    1    2    0    0 +0.0000000000e+00 +0.0000000000e+00 -9.6998669007e+01 1.3281473455e+02 9.0724924496e+01 0.0000e+00 0.0000e+00
      -11  1    3    3    0    0 +5.1921159856e+00 -1.7422619891e+01 -1.0934041181e+02 1.1084146971e+02 0.0000000000e+00 0.0000e+00 -1.0000e+00
       11  1    3    3    0    0 -5.1921159856e+00 +1.7422619891e+01 +1.2341742806e+01 2.1973264841e+01 0.0000000000e+00 0.0000e+00 1.0000e+00
<mgrwt>
<rscale>  0 0.90724924E+02</rscale>
<asrwt>0</asrwt>
<pdfrwt beam="2">  1        3 0.17677954E-01 0.90724924E+02</pdfrwt>
<pdfrwt beam="1">  1       -3 0.27550821E-02 0.90724924E+02</pdfrwt>
<totfact> 0.32830667E+04</totfact>
</mgrwt>
</event>
<event>
 5      1 +1.6944000e+03 9.18133800e+01 7.81860800e-03 1.29851900e-01
        3 -1    0    0  501    0 +0.0000000000e+00 +0.0000000000e+00 +3.1296888914e+01 3.1296888914e+01 0.0000000000e+00 0.0000e+00 -1.0000e+00
       -3 -1    0    0    0  501 -0.0000000000e+00 -0.0000000000e+00 -6.7336538945e+01 6.7336538945e+01 0.0000000000e+00 0.0000e+00 1.0000e+00
       23  2    1    2    0    0 +0.0000000000e+00 +0.0000000000e+00 -3.6039650031e+01 9.8633427859e+01 9.1813379835e+01 0.0000e+00 0.0000e+00
      -13  1    3    3    0    0 +1.9039713910e+01 -6.4891455020e+00 -6.2350111888e+01 6.5514549281e+01 0.0000000000e+00 0.0000e+00 1.0000e+00
       13  1    3    3    0    0 -1.9039713910e+01 +6.4891455020e+00 +2.6310461856e+01 3.3118878577e+01 0.0000000000e+00 0.0000e+00 -1.0000e+00
<mgrwt>
<rscale>  0 0.91813380E+02</rscale>
<asrwt>0</asrwt>
<pdfrwt beam="1">  1        3 0.48149060E-02 0.91813380E+02</pdfrwt>
<pdfrwt beam="2">  1       -3 0.10359467E-01 0.91813380E+02</pdfrwt>
<totfact> 0.34120104E+04</totfact>
</mgrwt>
</event>
<event>
 5      1 +1.6944000e+03 9.08267400e+01 7.81860800e-03 1.30086200e-01
        3 -1    0    0  501    0 +0.0000000000e+00 +0.0000000000e+00 +1.2199603926e+02 1.2199603926e+02 0.0000000000e+00 0.0000e+00 -1.0000e+00
       -3 -1    0    0    0  501 -0.0000000000e+00 -0.0000000000e+00 -1.6905255316e+01 1.6905255316e+01 0.0000000000e+00 0.0000e+00 1.0000e+00
       23  2    1    2    0    0 +0.0000000000e+00 +0.0000000000e+00 +1.0509078394e+02 1.3890129457e+02 9.0826740361e+01 0.0000e+00 0.0000e+00
      -11  1    3    3    0    0 +1.8792276246e+01 -1.8622045479e+01 +1.0899382493e+02 1.1215874508e+02 0.0000000000e+00 0.0000e+00 -1.0000e+00
       11  1    3    3    0    0 -1.8792276246e+01 +1.8622045479e+01 -3.9030409941e+00 2.6742549492e+01 0.0000000000e+00 0.0000e+00 1.0000e+00
<mgrwt>
<rscale>  0 0.90826740E+02</rscale>
<asrwt>0</asrwt>
<pdfrwt beam="1">  1        3 0.18768621E-01 0.90826740E+02</pdfrwt>
<pdfrwt beam="2">  1       -3 0.26008086E-02 0.90826740E+02</pdfrwt>
<totfact> 0.32335329E+04</totfact>
</mgrwt>
</event>
<event>
 5      1 +1.6944000e+03 8.37160000e+01 7.81860800e-03 1.31882500e-01
        1 -1    0    0  501    0 +0.0000000000e+00 +0.0000000000e+00 +7.6521208650e+01 7.6521208650e+01 0.0000000000e+00 0.0000e+00 -1.0000e+00
       -1 -1    0    0    0  501 -0.0000000000e+00 -0.0000000000e+00 -2.2896818479e+01 2.2896818479e+01 0.0000000000e+00 0.0000e+00 1.0000e+00
       23  2    1    2    0    0 +0.0000000000e+00 +0.0000000000e+00 +5.3624390171e+01 9.9418027129e+01 8.3716001440e+01 0.0000e+00 0.0000e+00
      -13  1    3    3    0    0 +1.5403564688e+01 +2.6064947250e+01 +6.1137510903e+01 6.8223504158e+01 0.0000000000e+00 0.0000e+00 -1.0000e+00
       13  1    3    3    0    0 -1.5403564688e+01 -2.6064947250e+01 -7.5131207317e+00 3.1194522971e+01 0.0000000000e+00 0.0000e+00 1.0000e+00
<mgrwt>
<rscale>  0 0.83716001E+02</rscale>
<asrwt>0</asrwt>
<pdfrwt beam="1">  1        1 0.11772494E-01 0.83716001E+02</pdfrwt>
<pdfrwt beam="2">  1       -1 0.35225875E-02 0.83716001E+02</pdfrwt>
<totfact> 0.12630803E+05</totfact>
</mgrwt>
</event>
<event>
 4      1 +1.6944000e+03 2.97515500e+01 7.81860800e-03 1.60085100e-01
       -4 -1    0    0    0  501 -0.0000000000e+00 +0.0000000000e+00 +1.3523936924e+00 1.3523936924e+00 0.0000000000e+00 0.0000e+00 1.0000e+00
        4 -1    0    0  501    0 +0.0000000000e+00 -0.0000000000e+00 -1.6362740267e+02 1.6362740267e+02 0.0000000000e+00 0.0000e+00 -1.0000e+00
      -13  1    1    2    0    0 -1.4835750861e+01 +7.0826519585e-02 -7.5103244191e+01 7.6554567519e+01 0.0000000000e+00 0.0000e+00 -1.0000e+00
       13  1    1    2    0    0 +1.4835750861e+01 -7.0826519585e-02 -8.7171764783e+01 8.8425228840e+01 0.0000000000e+00 0.0000e+00 1.0000e+00
<mgrwt>
<rscale>  0 0.29751549E+02</rscale>
<asrwt>0</asrwt>
<pdfrwt beam="2">  1        4 0.25173455E-01 0.29751549E+02</pdfrwt>
<pdfrwt beam="1">  1       -4 0.20806049E-03 0.29751549E+02</pdfrwt>
<totfact> 0.35921854E+05</totfact>
</mgrwt>
</event>
<event>
 5      1 +1.6944000e+03 8.88573700e+01 7.81860800e-03 1.30564300e-01
       -1 -1    0    0    0  501 -0.0000000000e+00 +0.0000000000e+00 +1.1583802455e+01 1.1583802455e+01 0.0000000000e+00 0.0000e+00 1.0000e+00
        1 -1    0    0  501    0 +0.0000000000e+00 -0.0000000000e+00 -1.7040243834e+02 1.7040243834e+02 0.0000000000e+00 0.0000e+00 -1.0000e+00
       23  2    1    2    0    0 +0.0000000000e+00 +0.0000000000e+00 -1.5881863589e+02 1.8198624080e+02 8.8857372988e+01 0.0000e+00 0.0000e+00
      -13  1    3    3    0    0 -3.3409469153e+01 -2.8849083777e+01 -6.9078037261e+01 8.1977054690e+01 0.0000000000e+00 0.0000e+00 1.0000e+00
       13  1    3    3    0    0 +3.3409469153e+01 +2.8849083777e+01 -8.9740598625e+01 1.0000918611e+02 0.0000000000e+00 0.0000e+00 -1.0000e+00
<mgrwt>
<rscale>  0 0.88857373E+02</rscale>
<asrwt>0</asrwt>
<pdfrwt beam="2">  1        1 0.26215761E-01 0.88857373E+02</pdfrwt>
<pdfrwt beam="1">  1       -1 0.17821234E-02 0.88857373E+02</pdfrwt>
<totfact> 0.12305030E+05</totfact>
</mgrwt>
</event>
<event>
 5      1 +1.6944000e+03 9.00854800e+01 7.81860800e-03 1.30264500e-01
        3 -1    0    0  501    0 +0.0000000000e+00 +0.0000000000e+00 +1.0062122980e+02 1.0062122980e+02 0.0000000000e+00 0.0000e+00 -1.0000e+00
       -3 -1    0    0    0  501 -0.0000000000e+00 -0.0000000000e+00 -2.0163224399e+01 2.0163224399e+01 0.0000000000e+00 0.0000e+00 1.0000e+00
       23  2    1    2    0    0 +0.0000000000e+00 +0.0000000000e+00 +8.0458005402e+01 1.2078445420e+02 9.0085480201e+01 0.0000e+00 0.0000e+00
      -13  1    3    3    0    0 +2.1116472312e+01 -3.9737189085e+01 +3.7581577172e+01 5.8628700668e+01 0.0000000000e+00 0.0000e+00 1.0000e+00
       13  1    3    3    0    0 -2.1116472312e+01 +3.9737189085e+01 +4.2876428230e+01 6.2155753531e+01 0.0000000000e+00 0.0000e+00 -1.0000e+00
<mgrwt>
<rscale>  0 0.90085480E+02</rscale>
<asrwt>0</asrwt>
<pdfrwt beam="1">  1        3 0.15480189E-01 0.90085480E+02</pdfrwt>
<pdfrwt beam="2">  1       -3 0.31020346E-02 0.90085480E+02</pdfrwt>
<totfact> 0.34293871E+04</totfact>
</mgrwt>
</event>
<event>
 5      1 +1.6944000e+03 9.08299100e+01 7.81860800e-03 1.30085400e-01
        1 -1    0    0  501    0 +0.0000000000e+00 +0.0000000000e+00 +1.2831233115e+01 1.2831233115e+01 0.0000000000e+00 0.0000e+00 -1.0000e+00
       -1 -1    0    0    0  501 -0.0000000000e+00 -0.0000000000e+00 -1.6074202038e+02 1.6074202038e+02 0.0000000000e+00 0.0000e+00 1.0000e+00
       23  2    1    2    0    0 +0.0000000000e+00 +0.0000000000e+00 -1.4791078726e+02 1.7357325349e+02 9.0829914341e+01 0.0000e+00 0.0000e+00
      -13  1    3    3    0    0 -8.5347961231e+00 -2.6592733026e+01 -1.4239113064e+02 1.4510427382e+02 0.0000000000e+00 0.0000e+00 1.0000e+00
       13  1    3    3    0    0 +8.5347961231e+00 +2.6592733026e+01 -5.5196566243e+00 2.8468979678e+01 0.0000000000e+00 0.0000e+00 -1.0000e+00
<mgrwt>
<rscale>  0 0.90829914E+02</rscale>
<asrwt>0</asrwt>
<pdfrwt beam="1">  1        1 0.19740357E-02 0.90829914E+02</pdfrwt>
<pdfrwt beam="2">  1       -1 0.24729544E-01 0.90829914E+02</pdfrwt>
<totfact> 0.74291872E+04</totfact>
</mgrwt>
</event>
<event>
 5      1 +1.6944000e+03 9.08852300e+01 7.81860800e-03 1.30072200e-01
        1 -1    0    0  501    0 +0.0000000000e+00 +0.0000000000e+00 +8.3102611139e+01 8.3102611139e+01 0.0000000000e+00 0.0000e+00 -1.0000e+00
       -1 -1    0    0    0  501 -0.0000000000e+00 -0.0000000000e+00 -2.4849173459e+01 2.4849173459e+01 0.0000000000e+00 0.0000e+00 1.0000e+00
       23  2    1    2    0    0 +0.0000000000e+00 +0.0000000000e+00 +5.8253437680e+01 1.0795178460e+02 9.0885228703e+01 0.0000e+00 0.0000e+00
      -11  1    3    3    0    0 -1.0858501068e+01 +8.9359095294e+00 -2.2199646278e+01 2.6278923483e+01 0.0000000000e+00 0.0000e+00 1.0000e+00
       11  1    3    3    0    0 +1.0858501068e+01 -8.9359095294e+00 +8.0453083958e+01 8.1672861116e+01 0.0000000000e+00 0.0000e+00 -1.0000e+00
<mgrwt>
<rscale>  0 0.90885229E+02</rscale>
<asrwt>0</asrwt>
<pdfrwt beam="1">  1        1 0.12785017E-01 0.90885229E+02</pdfrwt>
<pdfrwt beam="2">  1       -1 0.38229498E-02 0.90885229E+02</pdfrwt>
<totfact> 0.10224720E+05</totfact>
</mgrwt>
</event>
<event>
 5      1 +1.6944000e+03 9.06955200e+01 7.81860800e-03 1.30117600e-01
        1 -1    0    0  501    0 +0.0000000000e+00 +0.0000000000e+00 +2.6284342431e+01 2.6284342431e+01 0.0000000000e+00 0.0000e+00 -1.0000e+00
       -1 -1    0    0    0  501 -0.0000000000e+00 -0.0000000000e+00 -7.8237422545e+01 7.8237422545e+01 0.0000000000e+00 0.0000e+00 1.0000e+00
       23  2    1    2    0    0 +0.0000000000e+00 +0.0000000000e+00 -5.1953080115e+01 1.0452176498e+02 9.0695517090e+01 0.0000e+00 0.0000e+00
      -13  1    3    3    0    0 +3.0296896386e+01 -3.2791799262e+01 -1.6813668731e+01 4.7706430234e+01 0.0000000000e+00 0.0000e+00 -1.0000e+00
       13  1    3    3    0    0 -3.0296896386e+01 +3.2791799262e+01 -3.5139411384e+01 5.6815334742e+01 0.0000000000e+00 0.0000e+00 1.0000e+00
<mgrwt>
<rscale>  0 0.90695517E+02</rscale>
<asrwt>0</asrwt>
<pdfrwt beam="1">  1        1 0.40437450E-02 0.90695517E+02</pdfrwt>
<pdfrwt beam="2">  1       -1 0.12036527E-01 0.90695517E+02</pdfrwt>
<totfact> 0.86126548E+04</totfact>
</mgrwt>
</event>
<event>
 5      1 +1.6944000e+03 8.71187400e+01 7.81860800e-03 1.30998300e-01
       -1 -1    0    0    0  501 -0.0000000000e+00 +0.0000000000e+00 +1.2873261210e+02 1.2873261210e+02 0.0000000000e+00 0.0000e+00 1.0000e+00
        1 -1    0    0  501    0 +0.0000000000e+00 -0.0000000000e+00 -1.4739223367e+01 1.4739223367e+01 0.0000000000e+00 0.0000e+00 -1.0000e+00
       23  2    1    2    0    0 +0.0000000000e+00 +0.0000000000e+00 +1.1399338874e+02 1.4347183547e+02 8.7118740222e+01 0.0000e+00 0.0000e+00
      -13  1    3    3    0    0 +3.7182974069e+01 +4.0869419747e+00 +2.0240403648e+01 4.2531759841e+01 0.0000000000e+00 0.0000e+00 -1.0000e+00
       13  1    3    3    0    0 -3.7182974069e+01 -4.0869419747e+00 +9.3752985089e+01 1.0094007563e+02 0.0000000000e+00 0.0000e+00 1.0000e+00
<mgrwt>
<rscale>  0 0.87118740E+02</rscale>
<asrwt>0</asrwt>
<pdfrwt beam="2">  1        1 0.22675729E-02 0.87118740E+02</pdfrwt>
<pdfrwt beam="1">  1       -1 0.19805017E-01 0.87118740E+02</pdfrwt>
<totfact> 0.87048131E+04</totfact>
</mgrwt>
</event>
<event>
 5      1 +1.6944000e+03 9.12882000e+01 7.81860800e-03 1.29976200e-01
       -2 -1    0    0    0  501 -0.0000000000e+00 +0.0000000000e+00 +1.1170801095e+02 1.1170801095e+02 0.0000000000e+00 0.0000e+00 1.0000e+00
        2 -1    0    0  501    0 +0.0000000000e+00 -0.0000000000e+00 -1.8650262211e+01 1.8650262211e+01 0.0000000000e+00 0.0000e+00 -1.0000e+00
       23  2    1    2    0    0 +0.0000000000e+00 +0.0000000000e+00 +9.3057748739e+01 1.3035827316e+02 9.1288196287e+01 0.0000e+00 0.0000e+00
      -13  1    3    3    0    0 +2.6892995187e+01 +2.6936883588e+01 +8.2500373868e+01 9.0857804156e+01 0.0000000000e+00 0.0000e+00 -1.0000e+00
       13  1    3    3    0    0 -2.6892995187e+01 -2.6936883588e+01 +1.0557374871e+01 3.9500469006e+01 0.0000000000e+00 0.0000e+00 1.0000e+00
<mgrwt>
<rscale>  0 0.91288196E+02</rscale>
<asrwt>0</asrwt>
<pdfrwt beam="2">  1        2 0.28692712E-02 0.91288196E+02</pdfrwt>
<pdfrwt beam="1">  1       -2 0.17185847E-01 0.91288196E+02</pdfrwt>
<totfact> 0.76918091E+04</totfact>
</mgrwt>
</event>
<event>
 5      1 +1.6944000e+03 9.05306500e+01 7.81860800e-03 1.30157200e-01
        1 -1    0    0  501    0 +0.0000000000e+00 +0.0000000000e+00 +1.0667998023e+02 1.0667998023e+02 0.0000000000e+00 0.0000e+00 -1.0000e+00
       -1 -1    0    0    0  501 -0.0000000000e+00 -0.0000000000e+00 -1.9206506797e+01 1.9206506797e+01 0.0000000000e+00 0.0000e+00 1.0000e+00
       23  2    1    2    0    0 +0.0000000000e+00 +0.0000000000e+00 +8.7473473434e+01 1.2588648703e+02 9.0530652608e+01 0.0000e+00 0.0000e+00
      -13  1    3    3    0    0 -2.6288603942e+01 +2.1253802242e+01 +8.5594874780e+01 9.2028785690e+01 0.0000000000e+00 0.0000e+00 -1.0000e+00
       13  1    3    3    0    0 +2.6288603942e+01 -2.1253802242e+01 +1.8785986541e+00 3.3857701338e+01 0.0000000000e+00 0.0000e+00 1.0000e+00
<mgrwt>
<rscale>  0 0.90530653E+02</rscale>
<asrwt>0</asrwt>
<pdfrwt beam="1">  1        1 0.16412304E-01 0.90530653E+02</pdfrwt>
<pdfrwt beam="2">  1       -1 0.29548473E-02 0.90530653E+02</pdfrwt>
<totfact> 0.10765113E+05</totfact>
</mgrwt>
</event>
<event>
 4      1 +1.6944000e+03 3.68499900e+01 7.81860800e-03 1.53276000e-01
        2 -1    0    0  501    0 +0.0000000000e+00 +0.0000000000e+00 +5.9341609649e+01 5.9341609649e+01 0.0000000000e+00 0.0000e+00 -1.0000e+00
       -2 -1    0    0    0  501 -0.0000000000e+00 -0.0000000000e+00 -5.7207817077e+00 5.7207817077e+00 0.0000000000e+00 0.0000e+00 1.0000e+00
      -13  1    1    2    0    0 +1.2129727547e+01 -1.3799691347e+01 +2.9256025873e+01 3.4546733876e+01 0.0000000000e+00 0.0000e+00 -1.0000e+00
       13  1    1    2    0    0 -1.2129727547e+01 +1.3799691347e+01 +2.4364802068e+01 3.0515657480e+01 0.0000000000e+00 0.0000e+00 1.0000e+00
<mgrwt>
<rscale>  0 0.36849988E+02</rscale>
<asrwt>0</asrwt>
<pdfrwt beam="1">  1        2 0.91294780E-02 0.36849988E+02</pdfrwt>
<pdfrwt beam="2">  1       -2 0.88012030E-03 0.36849988E+02</pdfrwt>
<totfact> 0.11399077E+06</totfact>
</mgrwt>
</event>
<event>
 4      1 +1.6944000e+03 4.78246900e+01 7.81860800e-03 1.45744100e-01
        2 -1    0    0  501    0 +0.0000000000e+00 +0.0000000000e+00 +3.1622512416e+01 3.1622512416e+01 0.0000000000e+00 0.0000e+00 1.0000e+00
       -2 -1    0    0    0  501 -0.0000000000e+00 -0.0000000000e+00 -1.8082065228e+01 1.8082065228e+01 0.0000000000e+00 0.0000e+00 -1.0000e+00
      -13  1    1    2    0    0 -2.2333137925e+01 +7.7058319098e+00 +2.9302045506e+00 2.3806196540e+01 0.0000000000e+00 0.0000e+00 1.0000e+00
       13  1    1    2    0    0 +2.2333137925e+01 -7.7058319098e+00 +1.0610242638e+01 2.5898381104e+01 0.0000000000e+00 0.0000e+00 -1.0000e+00
<mgrwt>
<rscale>  0 0.47824694E+02</rscale>
<asrwt>0</asrwt>
<pdfrwt beam="1">  1        2 0.48650019E-02 0.47824694E+02</pdfrwt>
<pdfrwt beam="2">  1       -2 0.27818562E-02 0.47824694E+02</pdfrwt>
<totfact> 0.53154861E+05</totfact>
</mgrwt>
</event>
<event>
 5      1 +1.6944000e+03 9.04675300e+01 7.81860800e-03 1.30172300e-01
        2 -1    0    0  501    0 +0.0000000000e+00 +0.0000000000e+00 +5.8683976984e+01 5.8683976984e+01 0.0000000000e+00 0.0000e+00 -1.0000e+00
       -2 -1    0    0    0  501 -0.0000000000e+00 -0.0000000000e+00 -3.4866307440e+01 3.4866307440e+01 0.0000000000e+00 0.0000e+00 1.0000e+00
       23  2    1    2    0    0 +0.0000000000e+00 +0.0000000000e+00 +2.3817669544e+01 9.3550284424e+01 9.0467531929e+01 0.0000e+00 0.0000e+00
      -11  1    3    3    0    0 +4.3422495352e+01 +6.8139119150e+00 +2.2957056768e+01 4.9587992031e+01 0.0000000000e+00 0.0000e+00 -1.0000e+00
       11  1    3    3    0    0 -4.3422495352e+01 -6.8139119150e+00 +8.6061277607e-01 4.3962292394e+01 0.0000000000e+00 0.0000e+00 1.0000e+00
<mgrwt>
<rscale>  0 0.90467532E+02</rscale>
<asrwt>0</asrwt>
<pdfrwt beam="1">  1        2 0.90283041E-02 0.90467532E+02</pdfrwt>
<pdfrwt beam="2">  1       -2 0.53640473E-02 0.90467532E+02</pdfrwt>
<totfact> 0.10778971E+05</totfact>
</mgrwt>
</event>
<event>
 4      1 +1.6944000e+03 4.32341700e+01 7.81860800e-03 1.48567600e-01
        2 -1    0    0  501    0 +0.0000000000e+00 +0.0000000000e+00 +6.3042433691e+01 6.3042433691e+01 0.0000000000e+00 0.0000e+00 1.0000e+00
       -2 -1    0    0    0  501 -0.0000000000e+00 -0.0000000000e+00 -7.4124428018e+00 7.4124428018e+00 0.0000000000e+00 0.0000e+00 -1.0000e+00
      -11  1    1    2    0    0 -1.1279646448e+01 -6.3495233542e+00 -3.9900232625e-01 1.2950137979e+01 0.0000000000e+00 0.0000e+00 -1.0000e+00
       11  1    1    2    0    0 +1.1279646448e+01 +6.3495233542e+00 +5.6028993216e+01 5.7504738514e+01 0.0000000000e+00 0.0000e+00 1.0000e+00
<mgrwt>
<rscale>  0 0.43234173E+02</rscale>
<asrwt>0</asrwt>
<pdfrwt beam="1">  1        2 0.96988356E-02 0.43234173E+02</pdfrwt>
<pdfrwt beam="2">  1       -2 0.11403759E-02 0.43234173E+02</pdfrwt>
<totfact> 0.77642353E+05</totfact>
</mgrwt>
</event>
<event>
 5      1 +1.6944000e+03 8.99223900e+01 7.81860800e-03 1.30304000e-01
        2 -1    0    0  501    0 +0.0000000000e+00 +0.0000000000e+00 +1.1856587602e+01 1.1856587602e+01 0.0000000000e+00 0.0000e+00 1.0000e+00
       -2 -1    0    0    0  501 -0.0000000000e+00 -0.0000000000e+00 -1.7049671079e+02 1.7049671079e+02 0.0000000000e+00 0.0000e+00 -1.0000e+00
       23  2    1    2    0    0 +0.0000000000e+00 +0.0000000000e+00 -1.5864012318e+02 1.8235329839e+02 8.9922392926e+01 0.0000e+00 0.0000e+00
      -11  1    3    3    0    0 -3.7821872753e+01 -4.4428987635e+00 -1.2778957653e+02 1.3334320110e+02 0.0000000000e+00 0.0000e+00 1.0000e+00
       11  1    3    3    0    0 +3.7821872753e+01 +4.4428987635e+00 -3.0850546650e+01 4.9010097292e+01 0.0000000000e+00 0.0000e+00 -1.0000e+00
<mgrwt>
<rscale>  0 0.89922393E+02</rscale>
<asrwt>0</asrwt>
<pdfrwt beam="1">  1        2 0.18240904E-02 0.89922393E+02</pdfrwt>
<pdfrwt beam="2">  1       -2 0.26230263E-01 0.89922393E+02</pdfrwt>
<totfact> 0.68941128E+04</totfact>
</mgrwt>
</event>
<event>
 5      1 +1.6944000e+03 8.85617300e+01 7.81860800e-03 1.30637300e-01
       -2 -1    0    0    0  501 -0.0000000000e+00 +0.0000000000e+00 +1.8320451062e+01 1.8320451062e+01 0.0000000000e+00 0.0000e+00 1.0000e+00
        2 -1    0    0  501    0 +0.0000000000e+00 -0.0000000000e+00 -1.0702765703e+02 1.0702765703e+02 0.0000000000e+00 0.0000e+00 -1.0000e+00
       23  2    1    2    0    0 +0.0000000000e+00 +0.0000000000e+00 -8.8707205965e+01 1.2534810809e+02 8.8561728818e+01 0.0000e+00 0.0000e+00
      -11  1    3    3    0    0 -9.8805723174e+00 -4.0387190770e+01 -6.5914008760e+01 7.7932069384e+01 0.0000000000e+00 0.0000e+00 -1.0000e+00
       11  1    3    3    0    0 +9.8805723174e+00 +4.0387190770e+01 -2.2793197205e+01 4.7416038704e+01 0.0000000000e+00 0.0000e+00 1.0000e+00
<mgrwt>
<rscale>  0 0.88561729E+02</rscale>
<asrwt>0</asrwt>
<pdfrwt beam="2">  1        2 0.16465793E-01 0.88561729E+02</pdfrwt>
<pdfrwt beam="1">  1       -2 0.28185310E-02 0.88561729E+02</pdfrwt>
<totfact> 0.13565251E+05</totfact>
</mgrwt>
</event>
<event>
 5      1 +1.6944000e+03 8.16942000e+01 7.81860800e-03 1.32431100e-01
       -1 -1    0    0    0  501 -0.0000000000e+00 +0.0000000000e+00 +1.0367769528e+01 1.0367769528e+01 0.0000000000e+00 0.0000e+00 1.0000e+00
        1 -1    0    0  501    0 +0.0000000000e+00 -0.0000000000e+00 -1.6093004462e+02 1.6093004462e+02 0.0000000000e+00 0.0000e+00 -1.0000e+00
       23  2    1    2    0    0 +0.0000000000e+00 +0.0000000000e+00 -1.5056227509e+02 1.7129781415e+02 8.1694200842e+01 0.0000e+00 0.0000e+00
      -13  1    3    3    0    0 -3.6114653767e+01 -1.8929120608e+01 -8.0376787191e+01 9.0127730154e+01 0.0000000000e+00 0.0000e+00 -1.0000e+00
       13  1    3    3    0    0 +3.6114653767e+01 +1.8929120608e+01 -7.0185487903e+01 8.1170083996e+01 0.0000000000e+00 0.0000e+00 1.0000e+00
<mgrwt>
<rscale>  0 0.81694201E+02</rscale>
<asrwt>0</asrwt>
<pdfrwt beam="2">  1        1 0.24758465E-01 0.81694201E+02</pdfrwt>
<pdfrwt beam="1">  1       -1 0.15950417E-02 0.81694201E+02</pdfrwt>
<totfact> 0.15239389E+05</totfact>
</mgrwt>
</event>
<event>
 4      1 +1.6944000e+03 3.05457200e+01 7.81860800e-03 1.59213400e-01
        2 -1    0    0  501    0 +0.0000000000e+00 +0.0000000000e+00 +3.8507343318e+01 3.8507343318e+01 0.0000000000e+00 0.0000e+00 -1.0000e+00
       -2 -1    0    0    0  501 -0.0000000000e+00 -0.0000000000e+00 -6.0575542560e+00 6.0575542560e+00 0.0000000000e+00 0.0000e+00 1.0000e+00
      -13  1    1    2    0    0 +1.5014152130e+01 +2.6956850294e+00 +1.5124528107e+01 2.1481220459e+01 0.0000000000e+00 0.0000e+00 1.0000e+00
       13  1    1    2    0    0 -1.5014152130e+01 -2.6956850294e+00 +1.7325260956e+01 2.3083677115e+01 0.0000000000e+00 0.0000e+00 -1.0000e+00
<mgrwt>
<rscale>  0 0.30545725E+02</rscale>
<asrwt>0</asrwt>
<pdfrwt beam="1">  1        2 0.59242065E-02 0.30545725E+02</pdfrwt>
<pdfrwt beam="2">  1       -2 0.93193145E-03 0.30545725E+02</pdfrwt>
<totfact> 0.16734738E+06</totfact>
</mgrwt>
</event>
<event>
 5      1 +1.6944000e+03 8.97635400e+01 7.81860800e-03 1.30342500e-01
       -1 -1    0    0    0  501 -0.0000000000e+00 +0.0000000000e+00 +1.4649510042e+01 1.4649510042e+01 0.0000000000e+00 0.0000e+00 1.0000e+00
        1 -1    0    0  501    0 +0.0000000000e+00 -0.0000000000e+00 -1.3750447144e+02 1.3750447144e+02 0.0000000000e+00 0.0000e+00 -1.0000e+00
       23  2    1    2    0    0 +0.0000000000e+00 +0.0000000000e+00 -1.2285496140e+02 1.5215398149e+02 8.9763536813e+01 0.0000e+00 0.0000e+00
      -13  1    3    3    0    0 -3.1614241239e+01 +3.0607187959e+01 -7.6408619693e+01 8.8173337054e+01 0.0000000000e+00 0.0000e+00 -1.0000e+00
       13  1    3    3    0    0 +3.1614241239e+01 -3.0607187959e+01 -4.6446341708e+01 6.3980644432e+01 0.0000000000e+00 0.0000e+00 1.0000e+00
<mgrwt>
<rscale>  0 0.89763537E+02</rscale>
<asrwt>0</asrwt>
<pdfrwt beam="2">  1        1 0.21154533E-01 0.89763537E+02</pdfrwt>
<pdfrwt beam="1">  1       -1 0.22537709E-02 0.89763537E+02</pdfrwt>
<totfact> 0.11512348E+05</totfact>
</mgrwt>
</event>
<event>
 5      1 +1.6944000e+03 9.10867900e+01 7.81860800e-03 1.30024100e-01
       -2 -1    0    0    0  501 -0.0000000000e+00 +0.0000000000e+00 +9.4367240647e+01 9.4367240647e+01 0.0000000000e+00 0.0000e+00 1.0000e+00
        2 -1    0    0  501    0 +0.0000000000e+00 -0.0000000000e+00 -2.1980095671e+01 2.1980095671e+01 0.0000000000e+00 0.0000e+00 -1.0000e+00
       23  2    1    2    0    0 +0.0000000000e+00 +0.0000000000e+00 +7.2387144977e+01 1.1634733632e+02 9.1086793282e+01 0.0000e+00 0.0000e+00
      -11  1    3    3    0    0 +2.1819668102e+01 +3.9595099018e+01 +4.3228275943e+01 6.2550408658e+01 0.0000000000e+00 0.0000e+00 -1.0000e+00
       11  1    3    3    0    0 -2.1819668102e+01 -3.9595099018e+01 +2.9158869034e+01 5.3796927660e+01 0.0000000000e+00 0.0000e+00 1.0000e+00
<mgrwt>
<rscale>  0 0.91086793E+02</rscale>
<asrwt>0</asrwt>
<pdfrwt beam="2">  1        2 0.33815532E-02 0.91086793E+02</pdfrwt>
<pdfrwt beam="1">  1       -2 0.14518037E-01 0.91086793E+02</pdfrwt>
<totfact> 0.81382790E+04</totfact>
</mgrwt>
</event>
<event>
 4      1 +1.6944000e+03 5.33306000e+01 7.81860800e-03 1.42816300e-01
       -2 -1    0    0    0  501 -0.0000000000e+00 +0.0000000000e+00 +1.3092554449e+02 1.3092554449e+02 0.0000000000e+00 0.0000e+00 1.0000e+00
        2 -1    0    0  501    0 +0.0000000000e+00 -0.0000000000e+00 -5.4308584845e+00 5.4308584845e+00 0.0000000000e+00 0.0000e+00 -1.0000e+00
      -11  1    1    2    0    0 +1.5033271883e+01 -2.0839042922e+01 +4.4528697949e+01 5.1410795699e+01 0.0000000000e+00 0.0000e+00 -1.0000e+00
       11  1    1    2    0    0 -1.5033271883e+01 +2.0839042922e+01 +8.0965988057e+01 8.4945607276e+01 0.0000000000e+00 0.0000e+00 1.0000e+00
<mgrwt>
<rscale>  0 0.53330596E+02</rscale>
<asrwt>0</asrwt>
<pdfrwt beam="2">  1        2 0.83551679E-03 0.53330596E+02</pdfrwt>
<pdfrwt beam="1">  1       -2 0.20142389E-01 0.53330596E+02</pdfrwt>
<totfact> 0.27965051E+05</totfact>
</mgrwt>
</event>
<event>
 5      1 +1.6944000e+03 9.40455200e+01 7.81860800e-03 1.29334000e-01
       -2 -1    0    0    0  501 -0.0000000000e+00 +0.0000000000e+00 +7.8492999000e+01 7.8492999000e+01 0.0000000000e+00 0.0000e+00 1.0000e+00
        2 -1    0    0  501    0 +0.0000000000e+00 -0.0000000000e+00 -2.8169900808e+01 2.8169900808e+01 0.0000000000e+00 0.0000e+00 -1.0000e+00
       23  2    1    2    0    0 +0.0000000000e+00 +0.0000000000e+00 +5.0323098192e+01 1.0666289981e+02 9.4045520807e+01 0.0000e+00 0.0000e+00
      -13  1    3    3    0    0 -5.9589870965e+00 +1.8812405010e+01 +7.3569483019e+01 7.6170105299e+01 0.0000000000e+00 0.0000e+00 1.0000e+00
       13  1    3    3    0    0 +5.9589870965e+00 -1.8812405010e+01 -2.3246384827e+01 3.0492794509e+01 0.0000000000e+00 0.0000e+00 -1.0000e+00
<mgrwt>
<rscale>  0 0.94045521E+02</rscale>
<asrwt>0</asrwt>
<pdfrwt beam="2">  1        2 0.43338309E-02 0.94045521E+02</pdfrwt>
<pdfrwt beam="1">  1       -2 0.12075846E-01 0.94045521E+02</pdfrwt>
<totfact> 0.79263286E+04</totfact>
</mgrwt>
</event>
<event>
 5      1 +1.6944000e+03 8.98861600e+01 7.81860800e-03 1.30312800e-01
       -2 -1    0    0    0  501 -0.0000000000e+00 +0.0000000000e+00 +8.5807493917e+00 8.5807493917e+00 0.0000000000e+00 0.0000e+00 -1.0000e+00
        2 -1    0    0  501    0 +0.0000000000e+00 -0.0000000000e+00 -2.3539672391e+02 2.3539672391e+02 0.0000000000e+00 0.0000e+00 1.0000e+00
       23  2    1    2    0    0 +0.0000000000e+00 +0.0000000000e+00 -2.2681597452e+02 2.4397747330e+02 8.9886156787e+01 0.0000e+00 0.0000e+00
      -11  1    3    3    0    0 -3.3401742460e+01 -2.3691470034e+01 -6.3144554046e+01 7.5260858735e+01 0.0000000000e+00 0.0000e+00 1.0000e+00
       11  1    3    3    0    0 +3.3401742460e+01 +2.3691470034e+01 -1.6367142047e+02 1.6871661457e+02 0.0000000000e+00 0.0000e+00 -1.0000e+00
<mgrwt>
<rscale>  0 0.89886157E+02</rscale>
<asrwt>0</asrwt>
<pdfrwt beam="2">  1        2 0.36214882E-01 0.89886157E+02</pdfrwt>
<pdfrwt beam="1">  1       -2 0.13201152E-02 0.89886157E+02</pdfrwt>
<totfact> 0.17055916E+05</totfact>
</mgrwt>
</event>
<event>
 4      1 +1.6944000e+03 2.58844400e+01 7.81860800e-03 1.64861400e-01
       -2 -1    0    0    0  501 -0.0000000000e+00 +0.0000000000e+00 +1.1762068762e+01 1.1762068762e+01 0.0000000000e+00 0.0000e+00 -1.0000e+00
        2 -1    0    0  501    0 +0.0000000000e+00 -0.0000000000e+00 -1.4240780108e+01 1.4240780108e+01 0.0000000000e+00 0.0000e+00 1.0000e+00
      -11  1    1    2    0    0 +1.1396773337e+01 +4.5482535559e+00 -5.3725400823e+00 1.3395418614e+01 0.0000000000e+00 0.0000e+00 1.0000e+00
       11  1    1    2    0    0 -1.1396773337e+01 -4.5482535559e+00 +2.8938287361e+00 1.2607430256e+01 0.0000000000e+00 0.0000e+00 -1.0000e+00
<mgrwt>
<rscale>  0 0.25884438E+02</rscale>
<asrwt>0</asrwt>
<pdfrwt beam="2">  1        2 0.21908892E-02 0.25884438E+02</pdfrwt>
<pdfrwt beam="1">  1       -2 0.18095490E-02 0.25884438E+02</pdfrwt>
<totfact> 0.22242406E+06</totfact>
</mgrwt>
</event>
<event>
 5      1 +1.6944000e+03 9.12380000e+01 7.81860800e-03 1.29988100e-01
       -2 -1    0    0    0  501 -0.0000000000e+00 +0.0000000000e+00 +7.0432699105e+00 7.0432699105e+00 0.0000000000e+00 0.0000e+00 1.0000e+00
        2 -1    0    0  501    0 +0.0000000000e+00 -0.0000000000e+00 -2.9547255457e+02 2.9547255457e+02 0.0000000000e+00 0.0000e+00 -1.0000e+00
       23  2    1    2    0    0 +0.0000000000e+00 +0.0000000000e+00 -2.8842928466e+02 3.0251582448e+02 9.1237995440e+01 0.0000e+00 0.0000e+00
      -13  1    3    3    0    0 +4.0844926136e+01 +2.0135087750e+01 -1.5321180879e+02 1.5983612890e+02 0.0000000000e+00 0.0000e+00 -1.0000e+00
       13  1    3    3    0    0 -4.0844926136e+01 -2.0135087750e+01 -1.3521747587e+02 1.4267969558e+02 0.0000000000e+00 0.0000e+00 1.0000e+00
<mgrwt>
<rscale>  0 0.91237995E+02</rscale>
<asrwt>0</asrwt>
<pdfrwt beam="2">  1        2 0.45457323E-01 0.91237995E+02</pdfrwt>
<pdfrwt beam="1">  1       -2 0.10835798E-02 0.91237995E+02</pdfrwt>
<totfact> 0.17832568E+05</totfact>
</mgrwt>
</event>
<event>
 4      1 +1.6944000e+03 2.62566100e+01 7.81860800e-03 1.64358200e-01
       -2 -1    0    0    0  501 -0.0000000000e+00 +0.0000000000e+00 +1.2040286254e+01 1.2040286254e+01 0.0000000000e+00 0.0000e+00 1.0000e+00
        2 -1    0    0  501    0 +0.0000000000e+00 -0.0000000000e+00 -1.4314647747e+01 1.4314647747e+01 0.0000000000e+00 0.0000e+00 -1.0000e+00
      -11  1    1    2    0    0 +1.0368255104e+01 +4.5597731435e+00 -7.7998228847e+00 1.3752435495e+01 0.0000000000e+00 0.0000e+00 -1.0000e+00
       11  1    1    2    0    0 -1.0368255104e+01 -4.5597731435e+00 +5.5254613916e+00 1.2602498507e+01 0.0000000000e+00 0.0000e+00 1.0000e+00
<mgrwt>
<rscale>  0 0.26256615E+02</rscale>
<asrwt>0</asrwt>
<pdfrwt beam="2">  1        2 0.22022535E-02 0.26256615E+02</pdfrwt>
<pdfrwt beam="1">  1       -2 0.18523517E-02 0.26256615E+02</pdfrwt>
<totfact> 0.21507528E+06</totfact>
</mgrwt>
</event>
<event>
 5      1 +1.6944000e+03 9.38814200e+01 7.81860800e-03 1.29371500e-01
       -2 -1    0    0    0  501 -0.0000000000e+00 +0.0000000000e+00 +2.6206032585e+02 2.6206032585e+02 0.0000000000e+00 0.0000e+00 1.0000e+00
        2 -1    0    0  501    0 +0.0000000000e+00 -0.0000000000e+00 -8.4081038620e+00 8.4081038620e+00 0.0000000000e+00 0.0000e+00 -1.0000e+00
       23  2    1    2    0    0 +0.0000000000e+00 +0.0000000000e+00 +2.5365222199e+02 2.7046842971e+02 9.3881423889e+01 0.0000e+00 0.0000e+00
      -13  1    3    3    0    0 -1.5355832695e+01 +4.4339938271e+01 +1.3046880196e+02 1.3865042376e+02 0.0000000000e+00 0.0000e+00 1.0000e+00
       13  1    3    3    0    0 +1.5355832695e+01 -4.4339938271e+01 +1.2318342003e+02 1.3181800596e+02 0.0000000000e+00 0.0000e+00 -1.0000e+00
<mgrwt>
<rscale>  0 0.93881424E+02</rscale>
<asrwt>0</asrwt>
<pdfrwt beam="2">  1        2 0.12935546E-02 0.93881424E+02</pdfrwt>
<pdfrwt beam="1">  1       -2 0.40316967E-01 0.93881424E+02</pdfrwt>
<totfact> 0.50878079E+04</totfact>
</mgrwt>
</event>
<event>
 4      1 +1.6944000e+03 3.18593500e+01 7.81860800e-03 1.57840100e-01
        2 -1    0    0  501    0 +0.0000000000e+00 +0.0000000000e+00 +7.0269184446e+00 7.0269184446e+00 0.0000000000e+00 0.0000e+00 1.0000e+00
       -2 -1    0    0    0  501 -0.0000000000e+00 -0.0000000000e+00 -3.6111777615e+01 3.6111777615e+01 0.0000000000e+00 0.0000e+00 -1.0000e+00
      -13  1    1    2    0    0 -6.4957874055e+00 -1.2080659924e+01 -3.5741618843e+00 1.4174351181e+01 0.0000000000e+00 0.0000e+00 1.0000e+00
       13  1    1    2    0    0 +6.4957874055e+00 +1.2080659924e+01 -2.5510697286e+01 2.8964344878e+01 0.0000000000e+00 0.0000e+00 -1.0000e+00
<mgrwt>
<rscale>  0 0.31859348E+02</rscale>
<asrwt>0</asrwt>
<pdfrwt beam="1">  1        2 0.10810644E-02 0.31859348E+02</pdfrwt>
<pdfrwt beam="2">  1       -2 0.55556581E-02 0.31859348E+02</pdfrwt>
<totfact> 0.12387939E+06</totfact>
</mgrwt>
</event>
<event>
 5      1 +1.6944000e+03 7.81899400e+01 7.81860800e-03 1.33426800e-01
       -2 -1    0    0    0  501 -0.0000000000e+00 +0.0000000000e+00 +1.1406655565e+02 1.1406655565e+02 0.0000000000e+00 0.0000e+00 -1.0000e+00
        2 -1    0    0  501    0 +0.0000000000e+00 -0.0000000000e+00 -1.3399339881e+01 1.3399339881e+01 0.0000000000e+00 0.0000e+00 1.0000e+00
       23  2    1    2    0    0 +0.0000000000e+00 +0.0000000000e+00 +1.0066721577e+02 1.2746589553e+02 7.8189936645e+01 0.0000e+00 0.0000e+00
      -11  1    3    3    0    0 +2.0723332152e+01 +2.4148262661e+01 +1.3308797350e+01 3.4492305982e+01 0.0000000000e+00 0.0000e+00 1.0000e+00
       11  1    3    3    0    0 -2.0723332152e+01 -2.4148262661e+01 +8.7358418415e+01 9.2973589545e+01 0.0000000000e+00 0.0000e+00 -1.0000e+00
<mgrwt>
<rscale>  0 0.78189937E+02</rscale>
<asrwt>0</asrwt>
<pdfrwt beam="2">  1        2 0.20614370E-02 0.78189937E+02</pdfrwt>
<pdfrwt beam="1">  1       -2 0.17548700E-01 0.78189937E+02</pdfrwt>
<totfact> 0.11259828E+05</totfact>
</mgrwt>
</event>
<event>
 5      1 +1.6944000e+03 9.17374100e+01 7.81860800e-03 1.29869800e-01
       -3 -1    0    0    0  501 -0.0000000000e+00 +0.0000000000e+00 +1.4818690281e+02 1.4818690281e+02 0.0000000000e+00 0.0000e+00 1.0000e+00
        3 -1    0    0  501    0 +0.0000000000e+00 -0.0000000000e+00 -1.4197867328e+01 1.4197867328e+01 0.0000000000e+00 0.0000e+00 -1.0000e+00
       23  2    1    2    0    0 +0.0000000000e+00 +0.0000000000e+00 +1.3398903548e+02 1.6238477014e+02 9.1737407546e+01 0.0000e+00 0.0000e+00
      -13  1    3    3    0    0 +4.0014596046e+01 +2.2395960255e+01 +6.8926327842e+01 8.2786385368e+01 0.0000000000e+00 0.0000e+00 -1.0000e+00
       13  1    3    3    0    0 -4.0014596046e+01 -2.2395960255e+01 +6.5062707642e+01 7.9598384771e+01 0.0000000000e+00 0.0000e+00 1.0000e+00
<mgrwt>
<rscale>  0 0.91737408E+02</rscale>
<asrwt>0</asrwt>
<pdfrwt beam="2">  1        3 0.21842874E-02 0.91737408E+02</pdfrwt>
<pdfrwt beam="1">  1       -3 0.22797984E-01 0.91737408E+02</pdfrwt>
<totfact> 0.30063108E+04</totfact>
</mgrwt>
</event>
<event>
 5      1 +1.6944000e+03 8.92415300e+01 7.81860800e-03 1.30469900e-01
        1 -1    0    0  501    0 +0.0000000000e+00 +0.0000000000e+00 +5.1127814531e+01 5.1127814531e+01 0.0000000000e+00 0.0000e+00 -1.0000e+00
       -1 -1    0    0    0  501 -0.0000000000e+00 -0.0000000000e+00 -3.8941868007e+01 3.8941868007e+01 0.0000000000e+00 0.0000e+00 1.0000e+00
       23  2    1    2    0    0 +0.0000000000e+00 +0.0000000000e+00 +1.2185946524e+01 9.0069682537e+01 8.9241528560e+01 0.0000e+00 0.0000e+00
      -13  1    3    3    0    0 -4.1284323101e+01 -6.5879674810e+00 -9.6471330982e+00 4.2905289027e+01 0.0000000000e+00 0.0000e+00 1.0000e+00
       13  1    3    3    0    0 +4.1284323101e+01 +6.5879674810e+00 +2.1833079622e+01 4.7164393511e+01 0.0000000000e+00 0.0000e+00 -1.0000e+00
<mgrwt>
<rscale>  0 0.89241529E+02</rscale>
<asrwt>0</asrwt>
<pdfrwt beam="1">  1        1 0.78658176E-02 0.89241529E+02</pdfrwt>
<pdfrwt beam="2">  1       -1 0.59910566E-02 0.89241529E+02</pdfrwt>
<totfact> 0.99871402E+04</totfact>
</mgrwt>
</event>
<event>
 4      1 +1.6944000e+03 1.80974600e+02 7.81860800e-03 1.16686300e-01
        3 -1    0    0  501    0 +0.0000000000e+00 +0.0000000000e+00 +1.3308386932e+01 1.3308386932e+01 0.0000000000e+00 0.0000e+00 -1.0000e+00
       -3 -1    0    0    0  501 -0.0000000000e+00 -0.0000000000e+00 -6.1524764180e+02 6.1524764180e+02 0.0000000000e+00 0.0000e+00 1.0000e+00
      -11  1    1    2    0    0 -5.0658021775e+01 +6.2823305146e+01 -4.4311323847e+02 4.5040242556e+02 0.0000000000e+00 0.0000e+00 1.0000e+00
       11  1    1    2    0    0 +5.0658021775e+01 -6.2823305146e+01 -1.5882601640e+02 1.7815360317e+02 0.0000000000e+00 0.0000e+00 -1.0000e+00
<mgrwt>
<rscale>  0 0.18097462E+03</rscale>
<asrwt>0</asrwt>
<pdfrwt beam="1">  1        3 0.20474446E-02 0.18097462E+03</pdfrwt>
<pdfrwt beam="2">  1       -3 0.94653464E-01 0.18097462E+03</pdfrwt>
<totfact> 0.22709528E+03</totfact>
</mgrwt>
</event>
<event>
 5      1 +1.6944000e+03 9.44299800e+01 7.81860800e-03 1.29246500e-01
        1 -1    0    0  501    0 +0.0000000000e+00 +0.0000000000e+00 +4.4822317453e+01 4.4822317453e+01 0.0000000000e+00 0.0000e+00 -1.0000e+00
       -1 -1    0    0    0  501 -0.0000000000e+00 -0.0000000000e+00 -4.9735385180e+01 4.9735385180e+01 0.0000000000e+00 0.0000e+00 1.0000e+00
       23  2    1    2    0    0 +0.0000000000e+00 +0.0000000000e+00 -4.9130677267e+00 9.4557702633e+01 9.4429978781e+01 0.0000e+00 0.0000e+00
      -11  1    3    3    0    0 +2.7886010059e+01 +4.6291745100e+00 -4.0325623219e+01 4.9246468925e+01 0.0000000000e+00 0.0000e+00 1.0000e+00
       11  1    3    3    0    0 -2.7886010059e+01 -4.6291745100e+00 +3.5412555492e+01 4.5311233707e+01 0.0000000000e+00 0.0000e+00 -1.0000e+00
<mgrwt>
<rscale>  0 0.94429979E+02</rscale>
<asrwt>0</asrwt>
<pdfrwt beam="1">  1        1 0.68957412E-02 0.94429979E+02</pdfrwt>
<pdfrwt beam="2">  1       -1 0.76515977E-02 0.94429979E+02</pdfrwt>
<totfact> 0.83554761E+04</totfact>
</mgrwt>
</event>
<event>
 4      1 +1.6944000e+03 3.55244700e+01 7.81860800e-03 1.54399200e-01
        1 -1    0    0  501    0 +0.0000000000e+00 +0.0000000000e+00 +4.6733498597e+00 4.6733498597e+00 0.0000000000e+00 0.0000e+00 1.0000e+00
       -1 -1    0    0    0  501 -0.0000000000e+00 -0.0000000000e+00 -6.7509832948e+01 6.7509832948e+01 0.0000000000e+00 0.0000e+00 -1.0000e+00
      -13  1    1    2    0    0 -4.4766026916e+00 -1.2508111829e+01 -7.4617958507e+00 1.5237166092e+01 0.0000000000e+00 0.0000e+00 1.0000e+00
       13  1    1    2    0    0 +4.4766026916e+00 +1.2508111829e+01 -5.5374687238e+01 5.6946016717e+01 0.0000000000e+00 0.0000e+00 -1.0000e+00
<mgrwt>
<rscale>  0 0.35524474E+02</rscale>
<asrwt>0</asrwt>
<pdfrwt beam="1">  1        1 0.71897694E-03 0.35524474E+02</pdfrwt>
<pdfrwt beam="2">  1       -1 0.10386128E-01 0.35524474E+02</pdfrwt>
<totfact> 0.90355804E+05</totfact>
</mgrwt>
</event>
<event>
 5      1 +1.6944000e+03 9.36223300e+01 7.81860800e-03 1.29430900e-01
       -2 -1    0    0    0  501 -0.0000000000e+00 +0.0000000000e+00 +1.1145559233e+01 1.1145559233e+01 0.0000000000e+00 0.0000e+00 -1.0000e+00
        2 -1    0    0  501    0 +0.0000000000e+00 -0.0000000000e+00 -1.9660613140e+02 1.9660613140e+02 0.0000000000e+00 0.0000e+00 1.0000e+00
       23  2    1    2    0    0 +0.0000000000e+00 +0.0000000000e+00 -1.8546057217e+02 2.0775169064e+02 9.3622332445e+01 0.0000e+00 0.0000e+00
      -11  1    3    3    0    0 +1.1162598502e+01 -3.9710594649e+01 -4.3622258885e+01 6.0036958641e+01 0.0000000000e+00 0.0000e+00 -1.0000e+00
       11  1    3    3    0    0 -1.1162598502e+01 +3.9710594649e+01 -1.4183831329e+02 1.4771473199e+02 0.0000000000e+00 0.0000e+00 1.0000e+00
<mgrwt>
<rscale>  0 0.93622332E+02</rscale>
<asrwt>0</asrwt>
<pdfrwt beam="2">  1        2 0.30247095E-01 0.93622332E+02</pdfrwt>
<pdfrwt beam="1">  1       -2 0.17147016E-02 0.93622332E+02</pdfrwt>
<totfact> 0.14312475E+05</totfact>
</mgrwt>
</event>
<event>
 5      1 +1.6944000e+03 9.19913400e+01 7.81860800e-03 1.29810000e-01
        2 -1    0    0  501    0 +0.0000000000e+00 +0.0000000000e+00 +4.5386235744e+01 4.5386235744e+01 0.0000000000e+00 0.0000e+00 1.0000e+00
       -2 -1    0    0    0  501 -0.0000000000e+00 -0.0000000000e+00 -4.6613284553e+01 4.6613284553e+01 0.0000000000e+00 0.0000e+00 -1.0000e+00
       23  2    1    2    0    0 +0.0000000000e+00 +0.0000000000e+00 -1.2270488096e+00 9.1999520297e+01 9.1991337016e+01 0.0000e+00 0.0000e+00
      -13  1    3    3    0    0 -4.0979045010e+01 -1.7819657795e+01 -1.1513080408e+01 4.6145133593e+01 0.0000000000e+00 0.0000e+00 -1.0000e+00
       13  1    3    3    0    0 +4.0979045010e+01 +1.7819657795e+01 +1.0286031598e+01 4.5854386703e+01 0.0000000000e+00 0.0000e+00 1.0000e+00
<mgrwt>
<rscale>  0 0.91991337E+02</rscale>
<asrwt>0</asrwt>
<pdfrwt beam="1">  1        2 0.69824978E-02 0.91991337E+02</pdfrwt>
<pdfrwt beam="2">  1       -2 0.71712745E-02 0.91991337E+02</pdfrwt>
<totfact> 0.96071847E+04</totfact>
</mgrwt>
</event>
<event>
 4      1 +1.6944000e+03 6.78801000e+01 7.81860800e-03 1.36745400e-01
        2 -1    0    0  501    0 +0.0000000000e+00 +0.0000000000e+00 +1.3654919106e+01 1.3654919106e+01 0.0000000000e+00 0.0000e+00 -1.0000e+00
       -2 -1    0    0    0  501 -0.0000000000e+00 -0.0000000000e+00 -8.4359846439e+01 8.4359846439e+01 0.0000000000e+00 0.0000e+00 1.0000e+00
      -11  1    1    2    0    0 +1.0251132502e+01 -3.2310274275e+01 -3.7806030205e+01 5.0777312465e+01 0.0000000000e+00 0.0000e+00 -1.0000e+00
       11  1    1    2    0    0 -1.0251132502e+01 +3.2310274275e+01 -3.2898897128e+01 4.7237453080e+01 0.0000000000e+00 0.0000e+00 1.0000e+00
<mgrwt>
<rscale>  0 0.67880097E+02</rscale>
<asrwt>0</asrwt>
<pdfrwt beam="1">  1        2 0.21007568E-02 0.67880097E+02</pdfrwt>
<pdfrwt beam="2">  1       -2 0.12978438E-01 0.67880097E+02</pdfrwt>
<totfact> 0.17370158E+05</totfact>
</mgrwt>
</event>
<event>
 5      1 +1.6944000e+03 9.62591600e+01 7.81860800e-03 1.28836500e-01
        3 -1    0    0  501    0 +0.0000000000e+00 +0.0000000000e+00 +1.5710580684e+01 1.5710580684e+01 0.0000000000e+00 0.0000e+00 -1.0000e+00
       -3 -1    0    0    0  501 -0.0000000000e+00 -0.0000000000e+00 -1.4744564086e+02 1.4744564086e+02 0.0000000000e+00 0.0000e+00 1.0000e+00
       23  2    1    2    0    0 +0.0000000000e+00 +0.0000000000e+00 -1.3173506018e+02 1.6315622155e+02 9.6259163455e+01 0.0000e+00 0.0000e+00
      -11  1    3    3    0    0 +1.8878343585e+00 +4.8053793217e+01 -6.9139159519e+01 8.4219679055e+01 0.0000000000e+00 0.0000e+00 1.0000e+00
       11  1    3    3    0    0 -1.8878343585e+00 -4.8053793217e+01 -6.2595900663e+01 7.8936542494e+01 0.0000000000e+00 0.0000e+00 -1.0000e+00
<mgrwt>
<rscale>  0 0.96259163E+02</rscale>
<asrwt>0</asrwt>
<pdfrwt beam="1">  1        3 0.24170124E-02 0.96259163E+02</pdfrwt>
<pdfrwt beam="2">  1       -3 0.22683945E-01 0.96259163E+02</pdfrwt>
<totfact> 0.26338430E+04</totfact>
</mgrwt>
</event>
<event>
 5      1 +1.6944000e+03 9.16924000e+01 7.81860800e-03 1.29880400e-01
        1 -1    0    0  501    0 +0.0000000000e+00 +0.0000000000e+00 +1.2454773427e+02 1.2454773427e+02 0.0000000000e+00 0.0000e+00 -1.0000e+00
       -1 -1    0    0    0  501 -0.0000000000e+00 -0.0000000000e+00 -1.6876052095e+01 1.6876052095e+01 0.0000000000e+00 0.0000e+00 1.0000e+00
       23  2    1    2    0    0 +0.0000000000e+00 +0.0000000000e+00 +1.0767168218e+02 1.4142378637e+02 9.1692399944e+01 0.0000e+00 0.0000e+00
      -11  1    3    3    0    0 +1.5554595570e+01 +3.6976397402e+01 +1.9600928286e+01 4.4647461270e+01 0.0000000000e+00 0.0000e+00 1.0000e+00
       11  1    3    3    0    0 -1.5554595570e+01 -3.6976397402e+01 +8.8070753894e+01 9.6776325099e+01 0.0000000000e+00 0.0000e+00 -1.0000e+00
<mgrwt>
<rscale>  0 0.91692400E+02</rscale>
<asrwt>0</asrwt>
<pdfrwt beam="1">  1        1 0.19161189E-01 0.91692400E+02</pdfrwt>
<pdfrwt beam="2">  1       -1 0.25963158E-02 0.91692400E+02</pdfrwt>
<totfact> 0.10679577E+05</totfact>
</mgrwt>
</event>
<event>
 4      1 +1.6944000e+03 3.09907200e+01 7.81860800e-03 1.58738900e-01
        4 -1    0    0  501    0 +0.0000000000e+00 +0.0000000000e+00 +1.7513091334e+01 1.7513091334e+01 0.0000000000e+00 0.0000e+00 1.0000e+00
       -4 -1    0    0    0  501 -0.0000000000e+00 -0.0000000000e+00 -1.3710098919e+01 1.3710098919e+01 0.0000000000e+00 0.0000e+00 -1.0000e+00
      -11  1    1    2    0    0 +9.3613861598e+00 +9.4051461492e+00 -6.1593880930e+00 1.4629777394e+01 0.0000000000e+00 0.0000e+00 -1.0000e+00
       11  1    1    2    0    0 -9.3613861598e+00 -9.4051461492e+00 +9.9623805082e+00 1.6593412859e+01 0.0000000000e+00 0.0000e+00 1.0000e+00
<mgrwt>
<rscale>  0 0.30990722E+02</rscale>
<asrwt>0</asrwt>
<pdfrwt beam="1">  1        4 0.26943217E-02 0.30990722E+02</pdfrwt>
<pdfrwt beam="2">  1       -4 0.21092460E-02 0.30990722E+02</pdfrwt>
<totfact> 0.48101604E+05</totfact>
</mgrwt>
</event>
<event>
 5      1 +1.6944000e+03 9.06657100e+01 7.81860800e-03 1.30124800e-01
       -1 -1    0    0    0  501 -0.0000000000e+00 +0.0000000000e+00 +2.3877670458e+02 2.3877670458e+02 0.0000000000e+00 0.0000e+00 1.0000e+00
        1 -1    0    0  501    0 +0.0000000000e+00 -0.0000000000e+00 -8.6066510955e+00 8.6066510955e+00 0.0000000000e+00 0.0000e+00 -1.0000e+00
       23  2    1    2    0    0 +0.0000000000e+00 +0.0000000000e+00 +2.3017005349e+02 2.4738335568e+02 9.0665710963e+01 0.0000e+00 0.0000e+00
      -13  1    3    3    0    0 +1.7672612793e+00 -4.2981941202e+01 +7.6066470249e+01 8.7388090596e+01 0.0000000000e+00 0.0000e+00 -1.0000e+00
       13  1    3    3    0    0 -1.7672612793e+00 +4.2981941202e+01 +1.5410358324e+02 1.5999526508e+02 0.0000000000e+00 0.0000e+00 1.0000e+00
<mgrwt>
<rscale>  0 0.90665711E+02</rscale>
<asrwt>0</asrwt>
<pdfrwt beam="2">  1        1 0.13241003E-02 0.90665711E+02</pdfrwt>
<pdfrwt beam="1">  1       -1 0.36734873E-01 0.90665711E+02</pdfrwt>
<totfact> 0.66734224E+04</totfact>
</mgrwt>
</event>
<event>
 4      1 +1.6944000e+03 3.14468800e+01 7.81860800e-03 1.58262500e-01
       -1 -1    0    0    0  501 -0.0000000000e+00 +0.0000000000e+00 +2.7141001665e+00 2.7141001665e+00 0.0000000000e+00 0.0000e+00 -1.0000e+00
        1 -1    0    0  501    0 +0.0000000000e+00 -0.0000000000e+00 -9.1089714449e+01 9.1089714449e+01 0.0000000000e+00 0.0000e+00 1.0000e+00
      -13  1    1    2    0    0 -1.3556947098e+01 +7.9622050813e+00 -4.4777528375e+01 4.7457502797e+01 0.0000000000e+00 0.0000e+00 -1.0000e+00
       13  1    1    2    0    0 +1.3556947098e+01 -7.9622050813e+00 -4.3598085908e+01 4.6346311819e+01 0.0000000000e+00 0.0000e+00 1.0000e+00
<mgrwt>
<rscale>  0 0.31446883E+02</rscale>
<asrwt>0</asrwt>
<pdfrwt beam="2">  1        1 0.14013800E-01 0.31446883E+02</pdfrwt>
<pdfrwt beam="1">  1       -1 0.41755394E-03 0.31446883E+02</pdfrwt>
<totfact> 0.15551639E+06</totfact>
</mgrwt>
</event>
<event>
 4      1 +1.6944000e+03 3.46104400e+01 7.81860800e-03 1.55208700e-01
        2 -1    0    0  501    0 +0.0000000000e+00 +0.0000000000e+00 +4.4350935827e+01 4.4350935827e+01 0.0000000000e+00 0.0000e+00 -1.0000e+00
       -2 -1    0    0    0  501 -0.0000000000e+00 -0.0000000000e+00 -6.7522953232e+00 6.7522953232e+00 0.0000000000e+00 0.0000e+00 1.0000e+00
      -13  1    1    2    0    0 -2.2570697732e+00 -1.0900252861e+01 +3.8363198801e+01 3.9945524137e+01 0.0000000000e+00 0.0000e+00 -1.0000e+00
       13  1    1    2    0    0 +2.2570697732e+00 +1.0900252861e+01 -7.6455829724e-01 1.1157707013e+01 0.0000000000e+00 0.0000e+00 1.0000e+00
<mgrwt>
<rscale>  0 0.34610439E+02</rscale>
<asrwt>0</asrwt>
<pdfrwt beam="1">  1        2 0.68232207E-02 0.34610439E+02</pdfrwt>
<pdfrwt beam="2">  1       -2 0.10388147E-02 0.34610439E+02</pdfrwt>
<totfact> 0.12634196E+06</totfact>
</mgrwt>
</event>
<event>
 5      1 +1.6944000e+03 9.00314800e+01 7.81860800e-03 1.30277500e-01
        1 -1    0    0  501    0 +0.0000000000e+00 +0.0000000000e+00 +4.9041402973e+01 4.9041402973e+01 0.0000000000e+00 0.0000e+00 -1.0000e+00
       -1 -1    0    0    0  501 -0.0000000000e+00 -0.0000000000e+00 -4.1320530717e+01 4.1320530717e+01 0.0000000000e+00 0.0000e+00 1.0000e+00
       23  2    1    2    0    0 +0.0000000000e+00 +0.0000000000e+00 +7.7208722551e+00 9.0361933690e+01 9.0031478894e+01 0.0000e+00 0.0000e+00
      -13  1    3    3    0    0 -2.3200748441e+01 +3.3242208298e+01 +2.3505157794e+01 4.6859487659e+01 0.0000000000e+00 0.0000e+00 -1.0000e+00
       13  1    3    3    0    0 +2.3200748441e+01 -3.3242208298e+01 -1.5784285539e+01 4.3502446031e+01 0.0000000000e+00 0.0000e+00 1.0000e+00
<mgrwt>
<rscale>  0 0.90031479E+02</rscale>
<asrwt>0</asrwt>
<pdfrwt beam="1">  1        1 0.75448312E-02 0.90031479E+02</pdfrwt>
<pdfrwt beam="2">  1       -1 0.63570047E-02 0.90031479E+02</pdfrwt>
<totfact> 0.96851425E+04</totfact>
</mgrwt>
</event>
<event>
 5      1 +1.6944000e+03 9.14633000e+01 7.81860800e-03 1.29934600e-01
       -4 -1    0    0    0  501 -0.0000000000e+00 +0.0000000000e+00 +6.2998469034e+01 6.2998469034e+01 0.0000000000e+00 0.0000e+00 1.0000e+00
        4 -1    0    0  501    0 +0.0000000000e+00 -0.0000000000e+00 -3.3197374368e+01 3.3197374368e+01 0.0000000000e+00 0.0000e+00 -1.0000e+00
       23  2    1    2    0    0 +0.0000000000e+00 +0.0000000000e+00 +2.9801094666e+01 9.6195843402e+01 9.1463298894e+01 0.0000e+00 0.0000e+00
      -13  1    3    3    0    0 -4.0851350855e+01 -1.3998330947e+00 +3.6470024573e+01 5.4780061078e+01 0.0000000000e+00 0.0000e+00 1.0000e+00
       13  1    3    3    0    0 +4.0851350855e+01 +1.3998330947e+00 -6.6689299071e+00 4.1415782324e+01 0.0000000000e+00 0.0000e+00 -1.0000e+00
<mgrwt>
<rscale>  0 0.91463299E+02</rscale>
<asrwt>0</asrwt>
<pdfrwt beam="2">  1        4 0.51072884E-02 0.91463299E+02</pdfrwt>
<pdfrwt beam="1">  1       -4 0.96920722E-02 0.91463299E+02</pdfrwt>
<totfact> 0.26469374E+04</totfact>
</mgrwt>
</event>
<event>
 4      1 +1.6944000e+03 3.56029600e+01 7.81860800e-03 1.54331000e-01
       -2 -1    0    0    0  501 -0.0000000000e+00 +0.0000000000e+00 +3.0617550213e+00 3.0617550213e+00 0.0000000000e+00 0.0000e+00 1.0000e+00
        2 -1    0    0  501    0 +0.0000000000e+00 -0.0000000000e+00 -1.0350031797e+02 1.0350031797e+02 0.0000000000e+00 0.0000e+00 -1.0000e+00
      -11  1    1    2    0    0 +1.5763225156e+01 -7.4731350880e+00 -6.0829107640e+01 6.3281176914e+01 0.0000000000e+00 0.0000e+00 -1.0000e+00
       11  1    1    2    0    0 -1.5763225156e+01 +7.4731350880e+00 -3.9609455307e+01 4.3280896076e+01 0.0000000000e+00 0.0000e+00 1.0000e+00
<mgrwt>
<rscale>  0 0.35602956E+02</rscale>
<asrwt>0</asrwt>
<pdfrwt beam="2">  1        2 0.15923126E-01 0.35602956E+02</pdfrwt>
<pdfrwt beam="1">  1       -2 0.47103924E-03 0.35602956E+02</pdfrwt>
<totfact> 0.13999309E+06</totfact>
</mgrwt>
</event>
<event>
 4      1 +1.6944000e+03 3.03525700e+01 7.81860800e-03 1.59422400e-01
       -3 -1    0    0    0  501 -0.0000000000e+00 +0.0000000000e+00 +6.2865890384e+00 6.2865890384e+00 0.0000000000e+00 0.0000e+00 -1.0000e+00
        3 -1    0    0  501    0 +0.0000000000e+00 -0.0000000000e+00 -3.6636665446e+01 3.6636665446e+01 0.0000000000e+00 0.0000e+00 1.0000e+00
      -13  1    1    2    0    0 -3.6700386950e+00 +1.4697403255e+01 -1.3881404472e+01 2.0546927668e+01 0.0000000000e+00 0.0000e+00 1.0000e+00
       13  1    1    2    0    0 +3.6700386950e+00 -1.4697403255e+01 -1.6468671935e+01 2.2376326816e+01 0.0000000000e+00 0.0000e+00 -1.0000e+00
<mgrwt>
<rscale>  0 0.30352572E+02</rscale>
<asrwt>0</asrwt>
<pdfrwt beam="2">  1        3 0.56364100E-02 0.30352572E+02</pdfrwt>
<pdfrwt beam="1">  1       -3 0.96716755E-03 0.30352572E+02</pdfrwt>
<totfact> 0.64922261E+05</totfact>
</mgrwt>
</event>
<event>
 5      1 +1.6944000e+03 9.00537000e+01 7.81860800e-03 1.30272200e-01
       -1 -1    0    0    0  501 -0.0000000000e+00 +0.0000000000e+00 +1.8367015030e+01 1.8367015030e+01 0.0000000000e+00 0.0000e+00 1.0000e+00
        1 -1    0    0  501    0 +0.0000000000e+00 -0.0000000000e+00 -1.1038359513e+02 1.1038359513e+02 0.0000000000e+00 0.0000e+00 -1.0000e+00
       23  2    1    2    0    0 +0.0000000000e+00 +0.0000000000e+00 -9.2016580102e+01 1.2875061016e+02 9.0053698443e+01 0.0000e+00 0.0000e+00
      -13  1    3    3    0    0 -1.0770655257e+01 -2.0176667187e+01 +9.4436488965e+00 2.4744442162e+01 0.0000000000e+00 0.0000e+00 1.0000e+00
       13  1    3    3    0    0 +1.0770655257e+01 +2.0176667187e+01 -1.0146022900e+02 1.0400616800e+02 0.0000000000e+00 0.0000e+00 -1.0000e+00
<mgrwt>
<rscale>  0 0.90053698E+02</rscale>
<asrwt>0</asrwt>
<pdfrwt beam="2">  1        1 0.16982092E-01 0.90053698E+02</pdfrwt>
<pdfrwt beam="1">  1       -1 0.28256946E-02 0.90053698E+02</pdfrwt>
<totfact> 0.10983607E+05</totfact>
</mgrwt>
</event>
<event>
 5      1 +1.6944000e+03 9.09054200e+01 7.81860800e-03 1.30067400e-01
       -2 -1    0    0    0  501 -0.0000000000e+00 +0.0000000000e+00 +5.8785106295e+00 5.8785106295e+00 0.0000000000e+00 0.0000e+00 1.0000e+00
        2 -1    0    0  501    0 +0.0000000000e+00 -0.0000000000e+00 -3.5144089770e+02 3.5144089770e+02 0.0000000000e+00 0.0000e+00 -1.0000e+00
       23  2    1    2    0    0 +0.0000000000e+00 +0.0000000000e+00 -3.4556238708e+02 3.5731940833e+02 9.0905424542e+01 0.0000e+00 0.0000e+00
      -11  1    3    3    0    0 -7.6284439704e+00 -4.0500380237e+01 -9.7431626211e+01 1.0578939334e+02 0.0000000000e+00 0.0000e+00 1.0000e+00
       11  1    3    3    0    0 +7.6284439704e+00 +4.0500380237e+01 -2.4813076086e+02 2.5153001500e+02 0.0000000000e+00 0.0000e+00 -1.0000e+00
<mgrwt>
<rscale>  0 0.90905425E+02</rscale>
<asrwt>0</asrwt>
<pdfrwt beam="2">  1        2 0.54067849E-01 0.90905425E+02</pdfrwt>
<pdfrwt beam="1">  1       -2 0.90438595E-03 0.90905425E+02</pdfrwt>
<totfact> 0.19199956E+05</totfact>
</mgrwt>
</event>
<event>
 5      1 +1.6944000e+03 9.13819700e+01 7.81860800e-03 1.29953900e-01
        3 -1    0    0  501    0 +0.0000000000e+00 +0.0000000000e+00 +3.4217208416e+01 3.4217208416e+01 0.0000000000e+00 0.0000e+00 -1.0000e+00
       -3 -1    0    0    0  501 -0.0000000000e+00 -0.0000000000e+00 -6.1012163992e+01 6.1012163992e+01 0.0000000000e+00 0.0000e+00 1.0000e+00
       23  2    1    2    0    0 +0.0000000000e+00 +0.0000000000e+00 -2.6794955575e+01 9.5229372408e+01 9.1381966081e+01 0.0000e+00 0.0000e+00
      -13  1    3    3    0    0 +2.9017941689e+00 -3.7737116096e+01 -4.0071140191e+01 5.5119929398e+01 0.0000000000e+00 0.0000e+00 -1.0000e+00
       13  1    3    3    0    0 -2.9017941689e+00 +3.7737116096e+01 +1.3276184615e+01 4.0109443010e+01 0.0000000000e+00 0.0000e+00 1.0000e+00
<mgrwt>
<rscale>  0 0.91381966E+02</rscale>
<asrwt>0</asrwt>
<pdfrwt beam="1">  1        3 0.52641859E-02 0.91381966E+02</pdfrwt>
<pdfrwt beam="2">  1       -3 0.93864867E-02 0.91381966E+02</pdfrwt>
<totfact> 0.34815810E+04</totfact>
</mgrwt>
</event>
<event>
 5      1 +1.6944000e+03 9.10520900e+01 7.81860800e-03 1.30032400e-01
       -1 -1    0    0    0  501 -0.0000000000e+00 +0.0000000000e+00 +2.7988433180e+01 2.7988433180e+01 0.0000000000e+00 0.0000e+00 1.0000e+00
        1 -1    0    0  501    0 +0.0000000000e+00 -0.0000000000e+00 -7.4052765549e+01 7.4052765549e+01 0.0000000000e+00 0.0000e+00 -1.0000e+00
       23  2    1    2    0    0 +0.0000000000e+00 +0.0000000000e+00 -4.6064332369e+01 1.0204119873e+02 9.1052092350e+01 0.0000e+00 0.0000e+00
      -11  1    3    3    0    0 -1.3896923534e+00 -1.5228258773e+01 -7.1088613466e+01 7.2714662034e+01 0.0000000000e+00 0.0000e+00 -1.0000e+00
       11  1    3    3    0    0 +1.3896923534e+00 +1.5228258773e+01 +2.5024281097e+01 2.9326536695e+01 0.0000000000e+00 0.0000e+00 1.0000e+00
<mgrwt>
<rscale>  0 0.91052092E+02</rscale>
<asrwt>0</asrwt>
<pdfrwt beam="2">  1        1 0.11392733E-01 0.91052092E+02</pdfrwt>
<pdfrwt beam="1">  1       -1 0.43059128E-02 0.91052092E+02</pdfrwt>
<totfact> 0.99907911E+04</totfact>
</mgrwt>
</event>
<event>
 4      1 +1.6944000e+03 3.07284100e+01 7.81860800e-03 1.59017400e-01
        2 -1    0    0  501    0 +0.0000000000e+00 +0.0000000000e+00 +3.1075886339e+00 3.1075886339e+00 0.0000000000e+00 0.0000e+00 1.0000e+00
       -2 -1    0    0    0  501 -0.0000000000e+00 -0.0000000000e+00 -7.5962071845e+01 7.5962071845e+01 0.0000000000e+00 0.0000e+00 -1.0000e+00
      -11  1    1    2    0    0 +1.2813737994e+00 +1.1791713757e+01 -1.1297897124e+01 1.6380748199e+01 0.0000000000e+00 0.0000e+00 1.0000e+00
       11  1    1    2    0    0 -1.2813737994e+00 -1.1791713757e+01 -6.1556586086e+01 6.2688912279e+01 0.0000000000e+00 0.0000e+00 -1.0000e+00
<mgrwt>
<rscale>  0 0.30728415E+02</rscale>
<asrwt>0</asrwt>
<pdfrwt beam="1">  1        2 0.47809060E-03 0.30728415E+02</pdfrwt>
<pdfrwt beam="2">  1       -2 0.11686471E-01 0.30728415E+02</pdfrwt>
<totfact> 0.11983141E+06</totfact>
</mgrwt>
</event>
<event>
 5      1 +1.6944000e+03 9.33488800e+01 7.81860800e-03 1.29493900e-01
       -3 -1    0    0    0  501 -0.0000000000e+00 +0.0000000000e+00 +9.9819039078e+00 9.9819039078e+00 0.0000000000e+00 0.0000e+00 1.0000e+00
        3 -1    0    0  501    0 +0.0000000000e+00 -0.0000000000e+00 -2.1824527807e+02 2.1824527807e+02 0.0000000000e+00 0.0000e+00 -1.0000e+00
       23  2    1    2    0    0 +0.0000000000e+00 +0.0000000000e+00 -2.0826337416e+02 2.2822718198e+02 9.3348880958e+01 0.0000e+00 0.0000e+00
      -11  1    3    3    0    0 +4.1375293521e+01 -2.6766801886e+00 -5.1727616068e+01 6.6293482296e+01 0.0000000000e+00 0.0000e+00 1.0000e+00
       11  1    3    3    0    0 -4.1375293521e+01 +2.6766801886e+00 -1.5653575809e+02 1.6193369968e+02 0.0000000000e+00 0.0000e+00 -1.0000e+00
<mgrwt>
<rscale>  0 0.93348881E+02</rscale>
<asrwt>0</asrwt>
<pdfrwt beam="2">  1        3 0.33576198E-01 0.93348881E+02</pdfrwt>
<pdfrwt beam="1">  1       -3 0.15356775E-02 0.93348881E+02</pdfrwt>
<totfact> 0.25432482E+04</totfact>
</mgrwt>
</event>
<event>
 4      1 +1.6944000e+03 6.43592700e+01 7.81860800e-03 1.38039800e-01
        2 -1    0    0  501    0 +0.0000000000e+00 +0.0000000000e+00 +4.1991191703e+00 4.1991191703e+00 0.0000000000e+00 0.0000e+00 1.0000e+00
       -2 -1    0    0    0  501 -0.0000000000e+00 -0.0000000000e+00 -2.4660621078e+02 2.4660621078e+02 0.0000000000e+00 0.0000e+00 -1.0000e+00
      -11  1    1    2    0    0 -2.6191866416e+01 -1.6662657201e+01 -1.5424065730e+02 1.5733352591e+02 0.0000000000e+00 0.0000e+00 1.0000e+00
       11  1    1    2    0    0 +2.6191866416e+01 +1.6662657201e+01 -8.8166434308e+01 9.3471804037e+01 0.0000000000e+00 0.0000e+00 -1.0000e+00
<mgrwt>
<rscale>  0 0.64359269E+02</rscale>
<asrwt>0</asrwt>
<pdfrwt beam="1">  1        2 0.64601825E-03 0.64359269E+02</pdfrwt>
<pdfrwt beam="2">  1       -2 0.37939422E-01 0.64359269E+02</pdfrwt>
<totfact> 0.13710002E+05</totfact>
</mgrwt>
</event>
<event>
 4      1 +1.6944000e+03 2.25520500e+01 7.81860800e-03 1.69887600e-01
       -2 -1    0    0    0  501 -0.0000000000e+00 +0.0000000000e+00 +1.1349933549e+01 1.1349933549e+01 0.0000000000e+00 0.0000e+00 1.0000e+00
        2 -1    0    0  501    0 +0.0000000000e+00 -0.0000000000e+00 -1.1202601232e+01 1.1202601232e+01 0.0000000000e+00 0.0000e+00 -1.0000e+00
      -11  1    1    2    0    0 -9.3277475941e+00 -4.4113145908e+00 -4.4742004492e+00 1.1246556862e+01 0.0000000000e+00 0.0000e+00 1.0000e+00
       11  1    1    2    0    0 +9.3277475941e+00 +4.4113145908e+00 +4.6215327664e+00 1.1305977919e+01 0.0000000000e+00 0.0000e+00 -1.0000e+00
<mgrwt>
<rscale>  0 0.22552054E+02</rscale>
<asrwt>0</asrwt>
<pdfrwt beam="2">  1        2 0.17234771E-02 0.22552054E+02</pdfrwt>
<pdfrwt beam="1">  1       -2 0.17461436E-02 0.22552054E+02</pdfrwt>
<totfact> 0.30158786E+06</totfact>
</mgrwt>
</event>
<event>
 5      1 +1.6944000e+03 9.05687900e+01 7.81860800e-03 1.30148000e-01
       -1 -1    0    0    0  501 -0.0000000000e+00 +0.0000000000e+00 +2.7681515014e+02 2.7681515014e+02 0.0000000000e+00 0.0000e+00 1.0000e+00
        1 -1    0    0  501    0 +0.0000000000e+00 -0.0000000000e+00 -7.4081077624e+00 7.4081077624e+00 0.0000000000e+00 0.0000e+00 -1.0000e+00
       23  2    1    2    0    0 +0.0000000000e+00 +0.0000000000e+00 +2.6940704238e+02 2.8422325791e+02 9.0568790707e+01 0.0000e+00 0.0000e+00
      -11  1    3    3    0    0 -2.3422049562e+01 +2.8597225889e+01 +2.1679514256e+02 2.1992391314e+02 0.0000000000e+00 0.0000e+00 1.0000e+00
       11  1    3    3    0    0 +2.3422049562e+01 -2.8597225889e+01 +5.2611899819e+01 6.4299344762e+01 0.0000000000e+00 0.0000e+00 -1.0000e+00
<mgrwt>
<rscale>  0 0.90568791E+02</rscale>
<asrwt>0</asrwt>
<pdfrwt beam="2">  1        1 0.11397091E-02 0.90568791E+02</pdfrwt>
<pdfrwt beam="1">  1       -1 0.42586938E-01 0.90568791E+02</pdfrwt>
<totfact> 0.63573384E+04</totfact>
</mgrwt>
</event>
<event>
 4      1 +1.6944000e+03 5.27933300e+01 7.81860800e-03 1.43083200e-01
        2 -1    0    0  501    0 +0.0000000000e+00 +0.0000000000e+00 +5.3901892257e+01 5.3901892257e+01 0.0000000000e+00 0.0000e+00 -1.0000e+00
       -2 -1    0    0    0  501 -0.0000000000e+00 -0.0000000000e+00 -1.2926893760e+01 1.2926893760e+01 0.0000000000e+00 0.0000e+00 1.0000e+00
      -13  1    1    2    0    0 +5.9520779992e+00 +1.6528014200e+01 +4.5427813707e+01 4.8706146882e+01 0.0000000000e+00 0.0000e+00 -1.0000e+00
       13  1    1    2    0    0 -5.9520779992e+00 -1.6528014200e+01 -4.4528152106e+00 1.8122639134e+01 0.0000000000e+00 0.0000e+00 1.0000e+00
<mgrwt>
<rscale>  0 0.52793334E+02</rscale>
<asrwt>0</asrwt>
<pdfrwt beam="1">  1        2 0.82925987E-02 0.52793334E+02</pdfrwt>
<pdfrwt beam="2">  1       -2 0.19887529E-02 0.52793334E+02</pdfrwt>
<totfact> 0.45242196E+05</totfact>
</mgrwt>
</event>
<event>
 5      1 +1.6944000e+03 7.56339900e+01 7.81860800e-03 1.34191900e-01
        1 -1    0    0  501    0 +0.0000000000e+00 +0.0000000000e+00 +1.2060382315e+02 1.2060382315e+02 0.0000000000e+00 0.0000e+00 -1.0000e+00
       -1 -1    0    0    0  501 -0.0000000000e+00 -0.0000000000e+00 -1.1858040812e+01 1.1858040812e+01 0.0000000000e+00 0.0000e+00 1.0000e+00
       23  2    1    2    0    0 +0.0000000000e+00 +0.0000000000e+00 +1.0874578234e+02 1.3246186396e+02 7.5633988576e+01 0.0000e+00 0.0000e+00
      -13  1    3    3    0    0 -1.6389071751e+01 +2.0622164934e+01 +1.0189398440e+02 1.0524380940e+02 0.0000000000e+00 0.0000e+00 -1.0000e+00
       13  1    3    3    0    0 +1.6389071751e+01 -2.0622164934e+01 +6.8517979405e+00 2.7218054567e+01 0.0000000000e+00 0.0000e+00 1.0000e+00
<mgrwt>
<rscale>  0 0.75633989E+02</rscale>
<asrwt>0</asrwt>
<pdfrwt beam="1">  1        1 0.18554434E-01 0.75633989E+02</pdfrwt>
<pdfrwt beam="2">  1       -1 0.18243141E-02 0.75633989E+02</pdfrwt>
<totfact> 0.17794816E+05</totfact>
</mgrwt>
</event>
<event>
 5      1 +1.6944000e+03 9.21706100e+01 7.81860800e-03 1.29767900e-01
       -2 -1    0    0    0  501 -0.0000000000e+00 +0.0000000000e+00 +2.9761857496e+01 2.9761857496e+01 0.0000000000e+00 0.0000e+00 1.0000e+00
        2 -1    0    0  501    0 +0.0000000000e+00 -0.0000000000e+00 -7.1361657112e+01 7.1361657112e+01 0.0000000000e+00 0.0000e+00 -1.0000e+00
       23  2    1    2    0    0 +0.0000000000e+00 +0.0000000000e+00 -4.1599799615e+01 1.0112351461e+02 9.2170612879e+01 0.0000e+00 0.0000e+00
      -11  1    3    3    0    0 +5.9643939047e+00 -4.2190248715e+01 -1.5370136344e+00 4.2637465828e+01 0.0000000000e+00 0.0000e+00 1.0000e+00
       11  1    3    3    0    0 -5.9643939047e+00 +4.2190248715e+01 -4.0062785981e+01 5.8486048780e+01 0.0000000000e+00 0.0000e+00 -1.0000e+00
<mgrwt>
<rscale>  0 0.92170613E+02</rscale>
<asrwt>0</asrwt>
<pdfrwt beam="2">  1        2 0.10978717E-01 0.92170613E+02</pdfrwt>
<pdfrwt beam="1">  1       -2 0.45787473E-02 0.92170613E+02</pdfrwt>
<totfact> 0.10788767E+05</totfact>
</mgrwt>
</event>
<event>
 5      1 +1.6944000e+03 9.24490700e+01 7.81860800e-03 1.29702700e-01
        3 -1    0    0  501    0 +0.0000000000e+00 +0.0000000000e+00 +6.9710372559e+01 6.9710372559e+01 0.0000000000e+00 0.0000e+00 -1.0000e+00
       -3 -1    0    0    0  501 -0.0000000000e+00 -0.0000000000e+00 -3.0651212422e+01 3.0651212422e+01 0.0000000000e+00 0.0000e+00 1.0000e+00
       23  2    1    2    0    0 +0.0000000000e+00 +0.0000000000e+00 +3.9059160137e+01 1.0036158498e+02 9.2449065703e+01 0.0000e+00 0.0000e+00
      -13  1    3    3    0    0 +2.5795552578e+01 +2.9141066093e+01 -7.5469744746e+00 3.9643020692e+01 0.0000000000e+00 0.0000e+00 1.0000e+00
       13  1    3    3    0    0 -2.5795552578e+01 -2.9141066093e+01 +4.6606134612e+01 6.0718564289e+01 0.0000000000e+00 0.0000e+00 -1.0000e+00
<mgrwt>
<rscale>  0 0.92449066E+02</rscale>
<asrwt>0</asrwt>
<pdfrwt beam="1">  1        3 0.10724673E-01 0.92449066E+02</pdfrwt>
<pdfrwt beam="2">  1       -3 0.47155712E-02 0.92449066E+02</pdfrwt>
<totfact> 0.33358827E+04</totfact>
</mgrwt>
</event>
<event>
 5      1 +1.6944000e+03 9.19261500e+01 7.81860800e-03 1.29825300e-01
       -1 -1    0    0    0  501 -0.0000000000e+00 +0.0000000000e+00 +1.7621622856e+01 1.7621622856e+01 0.0000000000e+00 0.0000e+00 1.0000e+00
        1 -1    0    0  501    0 +0.0000000000e+00 -0.0000000000e+00 -1.1988705198e+02 1.1988705198e+02 0.0000000000e+00 0.0000e+00 -1.0000e+00
       23  2    1    2    0    0 +0.0000000000e+00 +0.0000000000e+00 -1.0226542913e+02 1.3750867484e+02 9.1926153306e+01 0.0000e+00 0.0000e+00
      -13  1    3    3    0    0 +1.6596833487e+00 +4.3871482462e+01 -3.0778960033e+01 5.3617216479e+01 0.0000000000e+00 0.0000e+00 1.0000e+00
       13  1    3    3    0    0 -1.6596833487e+00 -4.3871482462e+01 -7.1486469095e+01 8.3891458361e+01 0.0000000000e+00 0.0000e+00 -1.0000e+00
<mgrwt>
<rscale>  0 0.91926153E+02</rscale>
<asrwt>0</asrwt>
<pdfrwt beam="2">  1        1 0.18444163E-01 0.91926153E+02</pdfrwt>
<pdfrwt beam="1">  1       -1 0.27110188E-02 0.91926153E+02</pdfrwt>
<totfact> 0.10535295E+05</totfact>
</mgrwt>
</event>
<event>
 4      1 +1.6944000e+03 4.73531700e+01 7.81860800e-03 1.46016400e-01
       -4 -1    0    0    0  501 -0.0000000000e+00 +0.0000000000e+00 +6.9737944620e+00 6.9737944620e+00 0.0000000000e+00 0.0000e+00 1.0000e+00
        4 -1    0    0  501    0 +0.0000000000e+00 -0.0000000000e+00 -8.0383888061e+01 8.0383888061e+01 0.0000000000e+00 0.0000e+00 -1.0000e+00
      -11  1    1    2    0    0 -1.3836259371e+01 -5.4362745375e+00 -2.7091392531e+00 1.5110744182e+01 0.0000000000e+00 0.0000e+00 1.0000e+00
       11  1    1    2    0    0 +1.3836259371e+01 +5.4362745375e+00 -7.0700954346e+01 7.2246938341e+01 0.0000000000e+00 0.0000e+00 -1.0000e+00
<mgrwt>
<rscale>  0 0.47353172E+02</rscale>
<asrwt>0</asrwt>
<pdfrwt beam="2">  1        4 0.12366752E-01 0.47353172E+02</pdfrwt>
<pdfrwt beam="1">  1       -4 0.10728914E-02 0.47353172E+02</pdfrwt>
<totfact> 0.14797009E+05</totfact>
</mgrwt>
</event>
<event>
 4      1 +1.6944000e+03 7.50853800e+01 7.81860800e-03 1.34360700e-01
       -1 -1    0    0    0  501 -0.0000000000e+00 +0.0000000000e+00 +4.6030399836e+00 4.6030399836e+00 0.0000000000e+00 0.0000e+00 1.0000e+00
        1 -1    0    0  501    0 +0.0000000000e+00 -0.0000000000e+00 -3.0620060037e+02 3.0620060037e+02 0.0000000000e+00 0.0000e+00 -1.0000e+00
      -11  1    1    2    0    0 +1.5531621228e+01 -3.3447776209e+01 -1.2168520201e+02 1.2715059332e+02 0.0000000000e+00 0.0000e+00 1.0000e+00
       11  1    1    2    0    0 -1.5531621228e+01 +3.3447776209e+01 -1.7991235837e+02 1.8365304704e+02 0.0000000000e+00 0.0000e+00 -1.0000e+00
<mgrwt>
<rscale>  0 0.75085381E+02</rscale>
<asrwt>0</asrwt>
<pdfrwt beam="2">  1        1 0.47107791E-01 0.75085381E+02</pdfrwt>
<pdfrwt beam="1">  1       -1 0.70815991E-03 0.75085381E+02</pdfrwt>
<totfact> 0.21461039E+05</totfact>
</mgrwt>
</event>
<event>
 4      1 +1.6944000e+03 2.86233400e+01 7.81860800e-03 1.61382400e-01
       -2 -1    0    0    0  501 -0.0000000000e+00 +0.0000000000e+00 +5.5284706278e+01 5.5284706278e+01 0.0000000000e+00 0.0000e+00 1.0000e+00
        2 -1    0    0  501    0 +0.0000000000e+00 -0.0000000000e+00 -3.7048923531e+00 3.7048923531e+00 0.0000000000e+00 0.0000e+00 -1.0000e+00
      -11  1    1    2    0    0 +5.2459001895e+00 -1.0424716307e+01 +8.7168528588e+00 1.4566320834e+01 0.0000000000e+00 0.0000e+00 -1.0000e+00
       11  1    1    2    0    0 -5.2459001895e+00 +1.0424716307e+01 +4.2862961066e+01 4.4423277797e+01 0.0000000000e+00 0.0000e+00 1.0000e+00
<mgrwt>
<rscale>  0 0.28623339E+02</rscale>
<asrwt>0</asrwt>
<pdfrwt beam="2">  1        2 0.56998348E-03 0.28623339E+02</pdfrwt>
<pdfrwt beam="1">  1       -2 0.85053388E-02 0.28623339E+02</pdfrwt>
<totfact> 0.14935647E+06</totfact>
</mgrwt>
</event>
<event>
 5      1 +1.6944000e+03 9.21129700e+01 7.81860800e-03 1.29781400e-01
       -2 -1    0    0    0  501 -0.0000000000e+00 +0.0000000000e+00 +3.0135644976e+01 3.0135644976e+01 0.0000000000e+00 0.0000e+00 -1.0000e+00
        2 -1    0    0  501    0 +0.0000000000e+00 -0.0000000000e+00 -7.0388405025e+01 7.0388405025e+01 0.0000000000e+00 0.0000e+00 1.0000e+00
       23  2    1    2    0    0 +0.0000000000e+00 +0.0000000000e+00 -4.0252760050e+01 1.0052405000e+02 9.2112973772e+01 0.0000e+00 0.0000e+00
      -11  1    3    3    0    0 +2.9612326402e-02 -2.2644584118e+01 -6.3893620527e+01 6.7787703979e+01 0.0000000000e+00 0.0000e+00 1.0000e+00
       11  1    3    3    0    0 -2.9612326402e-02 +2.2644584118e+01 +2.3640860477e+01 3.2736346022e+01 0.0000000000e+00 0.0000e+00 -1.0000e+00
<mgrwt>
<rscale>  0 0.92112974E+02</rscale>
<asrwt>0</asrwt>
<pdfrwt beam="2">  1        2 0.10828985E-01 0.92112974E+02</pdfrwt>
<pdfrwt beam="1">  1       -2 0.46362531E-02 0.92112974E+02</pdfrwt>
<totfact> 0.10766328E+05</totfact>
</mgrwt>
</event>
<event>
 5      1 +1.6944000e+03 9.17085000e+01 7.81860800e-03 1.29876600e-01
        4 -1    0    0  501    0 +0.0000000000e+00 +0.0000000000e+00 +1.5167051085e+02 1.5167051085e+02 0.0000000000e+00 0.0000e+00 -1.0000e+00
       -4 -1    0    0    0  501 -0.0000000000e+00 -0.0000000000e+00 -1.3863027220e+01 1.3863027220e+01 0.0000000000e+00 0.0000e+00 1.0000e+00
       23  2    1    2    0    0 +0.0000000000e+00 +0.0000000000e+00 +1.3780748364e+02 1.6553353807e+02 9.1708503867e+01 0.0000e+00 0.0000e+00
      -13  1    3    3    0    0 -1.4320764082e+01 +4.2740814980e+01 +8.4086206716e+01 9.5406245649e+01 0.0000000000e+00 0.0000e+00 -1.0000e+00
       13  1    3    3    0    0 +1.4320764082e+01 -4.2740814980e+01 +5.3721276919e+01 7.0127292425e+01 0.0000000000e+00 0.0000e+00 1.0000e+00
<mgrwt>
<rscale>  0 0.91708504E+02</rscale>
<asrwt>0</asrwt>
<pdfrwt beam="1">  1        4 0.23333924E-01 0.91708504E+02</pdfrwt>
<pdfrwt beam="2">  1       -4 0.21327735E-02 0.91708504E+02</pdfrwt>
<totfact> 0.22560844E+04</totfact>
</mgrwt>
</event>
<event>
 5      1 +1.6944000e+03 9.14834200e+01 7.81860800e-03 1.29929900e-01
       -1 -1    0    0    0  501 -0.0000000000e+00 +0.0000000000e+00 +5.2166006940e+01 5.2166006940e+01 0.0000000000e+00 0.0000e+00 1.0000e+00
        1 -1    0    0  501    0 +0.0000000000e+00 -0.0000000000e+00 -4.0108572804e+01 4.0108572804e+01 0.0000000000e+00 0.0000e+00 -1.0000e+00
       23  2    1    2    0    0 +0.0000000000e+00 +0.0000000000e+00 +1.2057434136e+01 9.2274579744e+01 9.1483421170e+01 0.0000e+00 0.0000e+00
      -11  1    3    3    0    0 -3.4306963550e+01 -6.5180906627e+00 -2.3770832115e+01 4.2243410295e+01 0.0000000000e+00 0.0000e+00 -1.0000e+00
       11  1    3    3    0    0 +3.4306963550e+01 +6.5180906627e+00 +3.5828266251e+01 5.0031169449e+01 0.0000000000e+00 0.0000e+00 1.0000e+00
<mgrwt>
<rscale>  0 0.91483421E+02</rscale>
<asrwt>0</asrwt>
<pdfrwt beam="2">  1        1 0.61705497E-02 0.91483421E+02</pdfrwt>
<pdfrwt beam="1">  1       -1 0.80255395E-02 0.91483421E+02</pdfrwt>
<totfact> 0.89844105E+04</totfact>
</mgrwt>
</event>
<event>
 5      1 +1.6944000e+03 9.16563800e+01 7.81860800e-03 1.29888900e-01
       -1 -1    0    0    0  501 -0.0000000000e+00 +0.0000000000e+00 +1.5910483465e+01 1.5910483465e+01 0.0000000000e+00 0.0000e+00 1.0000e+00
        1 -1    0    0  501    0 +0.0000000000e+00 -0.0000000000e+00 -1.3200246654e+02 1.3200246654e+02 0.0000000000e+00 0.0000e+00 -1.0000e+00
       23  2    1    2    0    0 +0.0000000000e+00 +0.0000000000e+00 -1.1609198308e+02 1.4791295001e+02 9.1656381365e+01 0.0000e+00 0.0000e+00
      -11  1    3    3    0    0 -1.5890130369e+01 -1.3806922076e+01 -1.2373871841e+02 1.2551652391e+02 0.0000000000e+00 0.0000e+00 -1.0000e+00
       11  1    3    3    0    0 +1.5890130369e+01 +1.3806922076e+01 +7.6467353393e+00 2.2396426092e+01 0.0000000000e+00 0.0000e+00 1.0000e+00
<mgrwt>
<rscale>  0 0.91656381E+02</rscale>
<asrwt>0</asrwt>
<pdfrwt beam="2">  1        1 0.20308073E-01 0.91656381E+02</pdfrwt>
<pdfrwt beam="1">  1       -1 0.24477666E-02 0.91656381E+02</pdfrwt>
<totfact> 0.10801920E+05</totfact>
</mgrwt>
</event>
<event>
 5      1 +1.6944000e+03 8.54097700e+01 7.81860800e-03 1.31436400e-01
        3 -1    0    0  501    0 +0.0000000000e+00 +0.0000000000e+00 +1.8541242319e+01 1.8541242319e+01 0.0000000000e+00 0.0000e+00 -1.0000e+00
       -3 -1    0    0    0  501 -0.0000000000e+00 -0.0000000000e+00 -9.8359493654e+01 9.8359493654e+01 0.0000000000e+00 0.0000e+00 1.0000e+00
       23  2    1    2    0    0 +0.0000000000e+00 +0.0000000000e+00 -7.9818251335e+01 1.1690073597e+02 8.5409770079e+01 0.0000e+00 0.0000e+00
      -13  1    3    3    0    0 -1.5874702310e+01 -1.9670011493e+01 +7.2027820493e+00 2.6282990599e+01 0.0000000000e+00 0.0000e+00 -1.0000e+00
       13  1    3    3    0    0 +1.5874702310e+01 +1.9670011493e+01 -8.7021033384e+01 9.0617745375e+01 0.0000000000e+00 0.0000e+00 1.0000e+00
<mgrwt>
<rscale>  0 0.85409770E+02</rscale>
<asrwt>0</asrwt>
<pdfrwt beam="1">  1        3 0.28524988E-02 0.85409770E+02</pdfrwt>
<pdfrwt beam="2">  1       -3 0.15132230E-01 0.85409770E+02</pdfrwt>
<totfact> 0.39923757E+04</totfact>
</mgrwt>
</event>
<event>
 5      1 +1.6944000e+03 9.72266800e+01 7.81860800e-03 1.28623800e-01
       -2 -1    0    0    0  501 -0.0000000000e+00 +0.0000000000e+00 +1.9696395639e+01 1.9696395639e+01 0.0000000000e+00 0.0000e+00 -1.0000e+00
        2 -1    0    0  501    0 +0.0000000000e+00 -0.0000000000e+00 -1.1998422758e+02 1.1998422758e+02 0.0000000000e+00 0.0000e+00 1.0000e+00
       23  2    1    2    0    0 +0.0000000000e+00 +0.0000000000e+00 -1.0028783194e+02 1.3968062322e+02 9.7226679813e+01 0.0000e+00 0.0000e+00
      -11  1    3    3    0    0 -2.6728547335e+01 +1.4863679178e+01 +4.1437942426e+00 3.0862845495e+01 0.0000000000e+00 0.0000e+00 -1.0000e+00
       11  1    3    3    0    0 +2.6728547335e+01 -1.4863679178e+01 -1.0443162619e+02 1.0881777773e+02 0.0000000000e+00 0.0000e+00 1.0000e+00
<mgrwt>
<rscale>  0 0.97226680E+02</rscale>
<asrwt>0</asrwt>
<pdfrwt beam="2">  1        2 0.18459112E-01 0.97226680E+02</pdfrwt>
<pdfrwt beam="1">  1       -2 0.30302147E-02 0.97226680E+02</pdfrwt>
<totfact> 0.10884004E+05</totfact>
</mgrwt>
</event>
<event>
 4      1 +1.6944000e+03 2.17330500e+01 7.81860800e-03 1.71291000e-01
       -2 -1    0    0    0  501 -0.0000000000e+00 +0.0000000000e+00 +1.4313036804e+01 1.4313036804e+01 0.0000000000e+00 0.0000e+00 1.0000e+00
        2 -1    0    0  501    0 +0.0000000000e+00 -0.0000000000e+00 -8.2499207265e+00 8.2499207265e+00 0.0000000000e+00 0.0000e+00 -1.0000e+00
      -11  1    1    2    0    0 +4.0321426070e+00 -9.8117845234e+00 +5.4778317041e+00 1.1938841222e+01 0.0000000000e+00 0.0000e+00 1.0000e+00
       11  1    1    2    0    0 -4.0321426070e+00 +9.8117845234e+00 +5.8528437306e-01 1.0624116308e+01 0.0000000000e+00 0.0000e+00 -1.0000e+00
<mgrwt>
<rscale>  0 0.21733055E+02</rscale>
<asrwt>0</asrwt>
<pdfrwt beam="2">  1        2 0.12692186E-02 0.21733055E+02</pdfrwt>
<pdfrwt beam="1">  1       -2 0.22020057E-02 0.21733055E+02</pdfrwt>
<totfact> 0.32089252E+06</totfact>
</mgrwt>
</event>
<event>
 5      1 +1.6944000e+03 8.36688500e+01 7.81860800e-03 1.31895100e-01
       -2 -1    0    0    0  501 -0.0000000000e+00 +0.0000000000e+00 +1.5142527286e+01 1.5142527286e+01 0.0000000000e+00 0.0000e+00 1.0000e+00
        2 -1    0    0  501    0 +0.0000000000e+00 -0.0000000000e+00 -1.1557641480e+02 1.1557641480e+02 0.0000000000e+00 0.0000e+00 -1.0000e+00
       23  2    1    2    0    0 +0.0000000000e+00 +0.0000000000e+00 -1.0043388751e+02 1.3071894209e+02 8.3668847601e+01 0.0000e+00 0.0000e+00
      -13  1    3    3    0    0 -3.7918917003e+01 +1.7627535462e+01 -4.8275151961e+01 6.3867554908e+01 0.0000000000e+00 0.0000e+00 1.0000e+00
       13  1    3    3    0    0 +3.7918917003e+01 -1.7627535462e+01 -5.2158735554e+01 6.6851387178e+01 0.0000000000e+00 0.0000e+00 -1.0000e+00
<mgrwt>
<rscale>  0 0.83668848E+02</rscale>
<asrwt>0</asrwt>
<pdfrwt beam="2">  1        2 0.17780986E-01 0.83668848E+02</pdfrwt>
<pdfrwt beam="1">  1       -2 0.23296197E-02 0.83668848E+02</pdfrwt>
<totfact> 0.16210263E+05</totfact>
</mgrwt>
</event>
<event>
 4      1 +1.6944000e+03 2.49645500e+01 7.81860800e-03 1.66151200e-01
       -3 -1    0    0    0  501 -0.0000000000e+00 +0.0000000000e+00 +1.1818069136e+01 1.1818069136e+01 0.0000000000e+00 0.0000e+00 -1.0000e+00
        3 -1    0    0  501    0 +0.0000000000e+00 -0.0000000000e+00 -1.3183807802e+01 1.3183807802e+01 0.0000000000e+00 0.0000e+00 1.0000e+00
      -11  1    1    2    0    0 -1.0067426209e+01 -5.0960551429e+00 -6.0279187626e+00 1.2792914176e+01 0.0000000000e+00 0.0000e+00 1.0000e+00
       11  1    1    2    0    0 +1.0067426209e+01 +5.0960551429e+00 +4.6621800966e+00 1.2208962763e+01 0.0000000000e+00 0.0000e+00 -1.0000e+00
<mgrwt>
<rscale>  0 0.24964547E+02</rscale>
<asrwt>0</asrwt>
<pdfrwt beam="2">  1        3 0.20282781E-02 0.24964547E+02</pdfrwt>
<pdfrwt beam="1">  1       -3 0.18181645E-02 0.24964547E+02</pdfrwt>
<totfact> 0.10766794E+06</totfact>
</mgrwt>
</event>
<event>
 5      1 +1.6944000e+03 6.95471800e+01 7.81860800e-03 1.36164000e-01
       -1 -1    0    0    0  501 -0.0000000000e+00 +0.0000000000e+00 +6.0402365925e+01 6.0402365925e+01 0.0000000000e+00 0.0000e+00 -1.0000e+00
        1 -1    0    0  501    0 +0.0000000000e+00 -0.0000000000e+00 -2.0019123410e+01 2.0019123410e+01 0.0000000000e+00 0.0000e+00 1.0000e+00
       23  2    1    2    0    0 +0.0000000000e+00 +0.0000000000e+00 +4.0383242515e+01 8.0421489335e+01 6.9547175866e+01 0.0000e+00 0.0000e+00
      -11  1    3    3    0    0 +2.1037365439e+01 -1.8651524364e+01 -3.4714559882e+00 2.8328450582e+01 0.0000000000e+00 0.0000e+00 1.0000e+00
       11  1    3    3    0    0 -2.1037365439e+01 +1.8651524364e+01 +4.3854698503e+01 5.2093038753e+01 0.0000000000e+00 0.0000e+00 -1.0000e+00
<mgrwt>
<rscale>  0 0.69547176E+02</rscale>
<asrwt>0</asrwt>
<pdfrwt beam="2">  1        1 0.30798651E-02 0.69547176E+02</pdfrwt>
<pdfrwt beam="1">  1       -1 0.92926717E-02 0.69547176E+02</pdfrwt>
<totfact> 0.17566448E+05</totfact>
</mgrwt>
</event>
<event>
 5      1 +1.6944000e+03 9.55793600e+01 7.81860800e-03 1.28987700e-01
        1 -1    0    0  501    0 +0.0000000000e+00 +0.0000000000e+00 +7.5191583145e+00 7.5191583145e+00 0.0000000000e+00 0.0000e+00 -1.0000e+00
       -1 -1    0    0    0  501 -0.0000000000e+00 -0.0000000000e+00 -3.0373793543e+02 3.0373793543e+02 0.0000000000e+00 0.0000e+00 1.0000e+00
       23  2    1    2    0    0 +0.0000000000e+00 +0.0000000000e+00 -2.9621877711e+02 3.1125709374e+02 9.5579362262e+01 0.0000e+00 0.0000e+00
      -11  1    3    3    0    0 -1.7261505917e+01 +4.3358162739e+01 -1.8163168866e+02 1.8753122457e+02 0.0000000000e+00 0.0000e+00 -1.0000e+00
       11  1    3    3    0    0 +1.7261505917e+01 -4.3358162739e+01 -1.1458708845e+02 1.2372586918e+02 0.0000000000e+00 0.0000e+00 1.0000e+00
<mgrwt>
<rscale>  0 0.95579362E+02</rscale>
<asrwt>0</asrwt>
<pdfrwt beam="1">  1        1 0.11567938E-02 0.95579362E+02</pdfrwt>
<pdfrwt beam="2">  1       -1 0.46728903E-01 0.95579362E+02</pdfrwt>
<totfact> 0.53280358E+04</totfact>
</mgrwt>
</event>
<event>
 5      1 +1.6944000e+03 9.84675600e+01 7.81860800e-03 1.28355200e-01
        1 -1    0    0  501    0 +0.0000000000e+00 +0.0000000000e+00 +5.1230531365e+02 5.1230531365e+02 0.0000000000e+00 0.0000e+00 -1.0000e+00
       -1 -1    0    0    0  501 -0.0000000000e+00 -0.0000000000e+00 -4.7314855612e+00 4.7314855612e+00 0.0000000000e+00 0.0000e+00 1.0000e+00
       23  2    1    2    0    0 +0.0000000000e+00 +0.0000000000e+00 +5.0757382809e+02 5.1703679921e+02 9.8467562059e+01 0.0000e+00 0.0000e+00
      -13  1    3    3    0    0 +7.3519740046e+00 -4.8602510613e+01 +2.6836649936e+02 2.7283114473e+02 0.0000000000e+00 0.0000e+00 -1.0000e+00
       13  1    3    3    0    0 -7.3519740046e+00 +4.8602510613e+01 +2.3920732873e+02 2.4420565448e+02 0.0000000000e+00 0.0000e+00 1.0000e+00
<mgrwt>
<rscale>  0 0.98467562E+02</rscale>
<asrwt>0</asrwt>
<pdfrwt beam="1">  1        1 0.78816158E-01 0.98467562E+02</pdfrwt>
<pdfrwt beam="2">  1       -1 0.72792126E-03 0.98467562E+02</pdfrwt>
<totfact> 0.11380988E+05</totfact>
</mgrwt>
</event>
<event>
 5      1 +1.6944000e+03 9.20128600e+01 7.81860800e-03 1.29804900e-01
       -1 -1    0    0    0  501 -0.0000000000e+00 +0.0000000000e+00 +4.7561424776e+01 4.7561424776e+01 0.0000000000e+00 0.0000e+00 1.0000e+00
        1 -1    0    0  501    0 +0.0000000000e+00 -0.0000000000e+00 -4.4502279503e+01 4.4502279503e+01 0.0000000000e+00 0.0000e+00 -1.0000e+00
       23  2    1    2    0    0 +0.0000000000e+00 +0.0000000000e+00 +3.0591452736e+00 9.2063704279e+01 9.2012864730e+01 0.0000e+00 0.0000e+00
      -13  1    3    3    0    0 -2.7066111290e+01 +1.5369885065e+01 -3.2368108470e+01 4.4905480658e+01 0.0000000000e+00 0.0000e+00 -1.0000e+00
       13  1    3    3    0    0 +2.7066111290e+01 -1.5369885065e+01 +3.5427253743e+01 4.7158223621e+01 0.0000000000e+00 0.0000e+00 1.0000e+00
<mgrwt>
<rscale>  0 0.92012865E+02</rscale>
<asrwt>0</asrwt>
<pdfrwt beam="2">  1        1 0.68465046E-02 0.92012865E+02</pdfrwt>
<pdfrwt beam="1">  1       -1 0.73171423E-02 0.92012865E+02</pdfrwt>
<totfact> 0.89800214E+04</totfact>
</mgrwt>
</event>
<event>
 5      1 +1.6944000e+03 9.38693700e+01 7.81860800e-03 1.29374300e-01
        2 -1    0    0  501    0 +0.0000000000e+00 +0.0000000000e+00 +1.1990926274e+02 1.1990926274e+02 0.0000000000e+00 0.0000e+00 1.0000e+00
       -2 -1    0    0    0  501 -0.0000000000e+00 -0.0000000000e+00 -1.8371097904e+01 1.8371097904e+01 0.0000000000e+00 0.0000e+00 -1.0000e+00
       23  2    1    2    0    0 +0.0000000000e+00 +0.0000000000e+00 +1.0153816484e+02 1.3828036065e+02 9.3869373183e+01 0.0000e+00 0.0000e+00
      -13  1    3    3    0    0 -7.3508162939e+00 +4.3653573761e+01 +2.7796245812e+01 5.2271409810e+01 0.0000000000e+00 0.0000e+00 -1.0000e+00
       13  1    3    3    0    0 +7.3508162939e+00 -4.3653573761e+01 +7.3741919027e+01 8.6008950836e+01 0.0000000000e+00 0.0000e+00 1.0000e+00
<mgrwt>
<rscale>  0 0.93869373E+02</rscale>
<asrwt>0</asrwt>
<pdfrwt beam="1">  1        2 0.18447578E-01 0.93869373E+02</pdfrwt>
<pdfrwt beam="2">  1       -2 0.28263228E-02 0.93869373E+02</pdfrwt>
<totfact> 0.11987510E+05</totfact>
</mgrwt>
</event>
<event>
 4      1 +1.6944000e+03 2.15983700e+01 7.81860800e-03 1.71529200e-01
        2 -1    0    0  501    0 +0.0000000000e+00 +0.0000000000e+00 +4.8626322636e+00 4.8626322636e+00 0.0000000000e+00 0.0000e+00 -1.0000e+00
       -2 -1    0    0    0  501 -0.0000000000e+00 -0.0000000000e+00 -2.3983397393e+01 2.3983397393e+01 0.0000000000e+00 0.0000e+00 1.0000e+00
      -11  1    1    2    0    0 -1.5292958615e+00 -1.0650233498e+01 -1.0796211381e+01 1.5242191430e+01 0.0000000000e+00 0.0000e+00 1.0000e+00
       11  1    1    2    0    0 +1.5292958615e+00 +1.0650233498e+01 -8.3245537489e+00 1.3603838227e+01 0.0000000000e+00 0.0000e+00 -1.0000e+00
<mgrwt>
<rscale>  0 0.21598374E+02</rscale>
<asrwt>0</asrwt>
<pdfrwt beam="1">  1        2 0.74809726E-03 0.21598374E+02</pdfrwt>
<pdfrwt beam="2">  1       -2 0.36897535E-02 0.21598374E+02</pdfrwt>
<totfact> 0.31139349E+06</totfact>
</mgrwt>
</event>
<event>
 5      1 +1.6944000e+03 9.12869500e+01 7.81860800e-03 1.29976500e-01
       -1 -1    0    0    0  501 -0.0000000000e+00 +0.0000000000e+00 +6.9883035540e+00 6.9883035540e+00 0.0000000000e+00 0.0000e+00 1.0000e+00
        1 -1    0    0  501    0 +0.0000000000e+00 -0.0000000000e+00 -2.9811624311e+02 2.9811624311e+02 0.0000000000e+00 0.0000e+00 -1.0000e+00
       23  2    1    2    0    0 +0.0000000000e+00 +0.0000000000e+00 -2.9112793955e+02 3.0510454666e+02 9.1286949805e+01 0.0000e+00 0.0000e+00
      -11  1    3    3    0    0 +2.7084306148e+01 -3.3108789844e+01 -1.9878623673e+02 2.0333646874e+02 0.0000000000e+00 0.0000e+00 -1.0000e+00
       11  1    3    3    0    0 -2.7084306148e+01 +3.3108789844e+01 -9.2341702822e+01 1.0176807792e+02 0.0000000000e+00 0.0000e+00 1.0000e+00
<mgrwt>
<rscale>  0 0.91286950E+02</rscale>
<asrwt>0</asrwt>
<pdfrwt beam="2">  1        1 0.45864036E-01 0.91286950E+02</pdfrwt>
<pdfrwt beam="1">  1       -1 0.10751237E-02 0.91286950E+02</pdfrwt>
<totfact> 0.12755681E+05</totfact>
</mgrwt>
</event>
<event>
 4      1 +1.6944000e+03 2.89325400e+01 7.81860800e-03 1.61019700e-01
        1 -1    0    0  501    0 +0.0000000000e+00 +0.0000000000e+00 +7.7797084168e+00 7.7797084168e+00 0.0000000000e+00 0.0000e+00 1.0000e+00
       -1 -1    0    0    0  501 -0.0000000000e+00 -0.0000000000e+00 -2.6899843372e+01 2.6899843372e+01 0.0000000000e+00 0.0000e+00 -1.0000e+00
      -13  1    1    2    0    0 -8.2145278932e+00 +1.1756879205e+01 -1.1824904274e+01 1.8588465193e+01 0.0000000000e+00 0.0000e+00 -1.0000e+00
       13  1    1    2    0    0 +8.2145278932e+00 -1.1756879205e+01 -7.2952306810e+00 1.6091086596e+01 0.0000000000e+00 0.0000e+00 1.0000e+00
<mgrwt>
<rscale>  0 0.28932538E+02</rscale>
<asrwt>0</asrwt>
<pdfrwt beam="1">  1        1 0.11968782E-02 0.28932538E+02</pdfrwt>
<pdfrwt beam="2">  1       -1 0.41384375E-02 0.28932538E+02</pdfrwt>
<totfact> 0.15954904E+06</totfact>
</mgrwt>
</event>
<event>
 4      1 +1.6944000e+03 2.19429500e+01 7.81860800e-03 1.70924100e-01
        4 -1    0    0  501    0 +0.0000000000e+00 +0.0000000000e+00 +4.6748827149e+00 4.6748827149e+00 0.0000000000e+00 0.0000e+00 1.0000e+00
       -4 -1    0    0    0  501 -0.0000000000e+00 -0.0000000000e+00 -2.5748933828e+01 2.5748933828e+01 0.0000000000e+00 0.0000e+00 -1.0000e+00
      -13  1    1    2    0    0 -6.4135971608e+00 -8.1898247059e+00 -5.7009971606e+00 1.1862075109e+01 0.0000000000e+00 0.0000e+00 1.0000e+00
       13  1    1    2    0    0 +6.4135971608e+00 +8.1898247059e+00 -1.5373053953e+01 1.8561741435e+01 0.0000000000e+00 0.0000e+00 -1.0000e+00
<mgrwt>
<rscale>  0 0.21942948E+02</rscale>
<asrwt>0</asrwt>
<pdfrwt beam="1">  1        4 0.71921272E-03 0.21942948E+02</pdfrwt>
<pdfrwt beam="2">  1       -4 0.39613745E-02 0.21942948E+02</pdfrwt>
<totfact> 0.10266027E+06</totfact>
</mgrwt>
</event>
<event>
 5      1 +1.6944000e+03 8.99415400e+01 7.81860800e-03 1.30299300e-01
       -2 -1    0    0    0  501 -0.0000000000e+00 +0.0000000000e+00 +4.0689027775e+01 4.0689027775e+01 0.0000000000e+00 0.0000e+00 1.0000e+00
        2 -1    0    0  501    0 +0.0000000000e+00 -0.0000000000e+00 -4.9703085380e+01 4.9703085380e+01 0.0000000000e+00 0.0000e+00 -1.0000e+00
       23  2    1    2    0    0 +0.0000000000e+00 +0.0000000000e+00 -9.0140576051e+00 9.0392113155e+01 8.9941541493e+01 0.0000e+00 0.0000e+00
      -11  1    3    3    0    0 +2.2680451406e+00 +4.0226656805e+01 +1.5569085822e+01 4.3194031761e+01 0.0000000000e+00 0.0000e+00 -1.0000e+00
       11  1    3    3    0    0 -2.2680451406e+00 -4.0226656805e+01 -2.4583143427e+01 4.7198081394e+01 0.0000000000e+00 0.0000e+00 1.0000e+00
<mgrwt>
<rscale>  0 0.89941541E+02</rscale>
<asrwt>0</asrwt>
<pdfrwt beam="2">  1        2 0.76466285E-02 0.89941541E+02</pdfrwt>
<pdfrwt beam="1">  1       -2 0.62598504E-02 0.89941541E+02</pdfrwt>
<totfact> 0.10491691E+05</totfact>
</mgrwt>
</event>
<event>
 5      1 +1.6944000e+03 8.18994600e+01 7.81860800e-03 1.32374600e-01
       -4 -1    0    0    0  501 -0.0000000000e+00 +0.0000000000e+00 +6.6989633300e+01 6.6989633300e+01 0.0000000000e+00 0.0000e+00 -1.0000e+00
        4 -1    0    0  501    0 +0.0000000000e+00 -0.0000000000e+00 -2.5031941318e+01 2.5031941318e+01 0.0000000000e+00 0.0000e+00 1.0000e+00
       23  2    1    2    0    0 +0.0000000000e+00 +0.0000000000e+00 +4.1957691982e+01 9.2021574618e+01 8.1899464459e+01 0.0000e+00 0.0000e+00
      -11  1    3    3    0    0 -3.8026068098e+01 -1.1575769195e+01 +9.9184387121e+00 4.0967739918e+01 0.0000000000e+00 0.0000e+00 1.0000e+00
       11  1    3    3    0    0 +3.8026068098e+01 +1.1575769195e+01 +3.2039253270e+01 5.1053834700e+01 0.0000000000e+00 0.0000e+00 -1.0000e+00
<mgrwt>
<rscale>  0 0.81899464E+02</rscale>
<asrwt>0</asrwt>
<pdfrwt beam="2">  1        4 0.38510679E-02 0.81899464E+02</pdfrwt>
<pdfrwt beam="1">  1       -4 0.10306097E-01 0.81899464E+02</pdfrwt>
<totfact> 0.35983506E+04</totfact>
</mgrwt>
</event>
<event>
 5      1 +1.6944000e+03 8.95307600e+01 7.81860800e-03 1.30399200e-01
        1 -1    0    0  501    0 +0.0000000000e+00 +0.0000000000e+00 +9.4617758274e+01 9.4617758274e+01 0.0000000000e+00 0.0000e+00 -1.0000e+00
       -1 -1    0    0    0  501 -0.0000000000e+00 -0.0000000000e+00 -2.1179316039e+01 2.1179316039e+01 0.0000000000e+00 0.0000e+00 1.0000e+00
       23  2    1    2    0    0 +0.0000000000e+00 +0.0000000000e+00 +7.3438442235e+01 1.1579707431e+02 8.9530763548e+01 0.0000e+00 0.0000e+00
      -13  1    3    3    0    0 +3.6889268591e+01 +1.1829463592e+01 +7.7064529829e+00 3.9498655213e+01 0.0000000000e+00 0.0000e+00 1.0000e+00
       13  1    3    3    0    0 -3.6889268591e+01 -1.1829463592e+01 +6.5731989253e+01 7.6298419100e+01 0.0000000000e+00 0.0000e+00 -1.0000e+00
<mgrwt>
<rscale>  0 0.89530764E+02</rscale>
<asrwt>0</asrwt>
<pdfrwt beam="1">  1        1 0.14556578E-01 0.89530764E+02</pdfrwt>
<pdfrwt beam="2">  1       -1 0.32583564E-02 0.89530764E+02</pdfrwt>
<totfact> 0.10876991E+05</totfact>
</mgrwt>
</event>
<event>
 4      1 +1.6944000e+03 6.20723800e+01 7.81860800e-03 1.38933500e-01
        2 -1    0    0  501    0 +0.0000000000e+00 +0.0000000000e+00 +9.3129334657e+00 9.3129334657e+00 0.0000000000e+00 0.0000e+00 1.0000e+00
       -2 -1    0    0    0  501 -0.0000000000e+00 -0.0000000000e+00 -1.0343090228e+02 1.0343090228e+02 0.0000000000e+00 0.0000e+00 -1.0000e+00
      -13  1    1    2    0    0 +1.1180144696e+01 -2.7676534893e+01 -6.2498726905e+01 6.9260934760e+01 0.0000000000e+00 0.0000e+00 -1.0000e+00
       13  1    1    2    0    0 -1.1180144696e+01 +2.7676534893e+01 -3.1619241905e+01 4.3482900982e+01 0.0000000000e+00 0.0000e+00 1.0000e+00
<mgrwt>
<rscale>  0 0.62072381E+02</rscale>
<asrwt>0</asrwt>
<pdfrwt beam="1">  1        2 0.14327590E-02 0.62072381E+02</pdfrwt>
<pdfrwt beam="2">  1       -2 0.15912447E-01 0.62072381E+02</pdfrwt>
<totfact> 0.20564200E+05</totfact>
</mgrwt>
</event>
<event>
 4      1 +1.6944000e+03 3.54696700e+01 7.81860800e-03 1.54446900e-01
       -4 -1    0    0    0  501 -0.0000000000e+00 +0.0000000000e+00 +8.7535921122e+01 8.7535921122e+01 0.0000000000e+00 0.0000e+00 -1.0000e+00
        4 -1    0    0  501    0 +0.0000000000e+00 -0.0000000000e+00 -3.5930888543e+00 3.5930888543e+00 0.0000000000e+00 0.0000e+00 1.0000e+00
      -11  1    1    2    0    0 +1.4482033923e+01 +8.0992178133e+00 +5.8056741679e+01 6.0381386951e+01 0.0000000000e+00 0.0000e+00 1.0000e+00
       11  1    1    2    0    0 -1.4482033923e+01 -8.0992178133e+00 +2.5886090589e+01 3.0747623026e+01 0.0000000000e+00 0.0000e+00 -1.0000e+00
<mgrwt>
<rscale>  0 0.35469668E+02</rscale>
<asrwt>0</asrwt>
<pdfrwt beam="2">  1        4 0.55278297E-03 0.35469668E+02</pdfrwt>
<pdfrwt beam="1">  1       -4 0.13467063E-01 0.35469668E+02</pdfrwt>
<totfact> 0.29129006E+05</totfact>
</mgrwt>
</event>
<event>
 5      1 +1.6944000e+03 9.10097100e+01 7.81860800e-03 1.30042500e-01
       -2 -1    0    0    0  501 -0.0000000000e+00 +0.0000000000e+00 +2.5191971741e+01 2.5191971741e+01 0.0000000000e+00 0.0000e+00 -1.0000e+00
        2 -1    0    0  501    0 +0.0000000000e+00 -0.0000000000e+00 -8.2196489283e+01 8.2196489283e+01 0.0000000000e+00 0.0000e+00 1.0000e+00
       23  2    1    2    0    0 +0.0000000000e+00 +0.0000000000e+00 -5.7004517542e+01 1.0738846102e+02 9.1009705751e+01 0.0000e+00 0.0000e+00
      -11  1    3    3    0    0 +4.4613094030e+01 +9.9372461227e-02 -1.7925013341e+01 4.8079560492e+01 0.0000000000e+00 0.0000e+00 -1.0000e+00
       11  1    3    3    0    0 -4.4613094030e+01 -9.9372461227e-02 -3.9079504201e+01 5.9308900533e+01 0.0000000000e+00 0.0000e+00 1.0000e+00
<mgrwt>
<rscale>  0 0.91009706E+02</rscale>
<asrwt>0</asrwt>
<pdfrwt beam="2">  1        2 0.12645614E-01 0.91009706E+02</pdfrwt>
<pdfrwt beam="1">  1       -2 0.38756880E-02 0.91009706E+02</pdfrwt>
<totfact> 0.11634360E+05</totfact>
</mgrwt>
</event>
<event>
 5      1 +1.6944000e+03 8.21693700e+01 7.81860800e-03 1.32300500e-01
        4 -1    0    0  501    0 +0.0000000000e+00 +0.0000000000e+00 +1.4832250506e+01 1.4832250506e+01 0.0000000000e+00 0.0000e+00 -1.0000e+00
       -4 -1    0    0    0  501 -0.0000000000e+00 -0.0000000000e+00 -1.1380278552e+02 1.1380278552e+02 0.0000000000e+00 0.0000e+00 1.0000e+00
       23  2    1    2    0    0 +0.0000000000e+00 +0.0000000000e+00 -9.8970535014e+01 1.2863503603e+02 8.2169371986e+01 0.0000e+00 0.0000e+00
      -13  1    3    3    0    0 +2.5624846830e+01 -2.6077386263e+01 -2.0143834758e+01 4.1742507448e+01 0.0000000000e+00 0.0000e+00 -1.0000e+00
       13  1    3    3    0    0 -2.5624846830e+01 +2.6077386263e+01 -7.8826700256e+01 8.6892528577e+01 0.0000000000e+00 0.0000e+00 1.0000e+00
<mgrwt>
<rscale>  0 0.82169372E+02</rscale>
<asrwt>0</asrwt>
<pdfrwt beam="1">  1        4 0.22818845E-02 0.82169372E+02</pdfrwt>
<pdfrwt beam="2">  1       -4 0.17508122E-01 0.82169372E+02</pdfrwt>
<totfact> 0.32745705E+04</totfact>
</mgrwt>
</event>
<event>
 5      1 +1.6944000e+03 8.94043700e+01 7.81860800e-03 1.30430100e-01
       -3 -1    0    0    0  501 -0.0000000000e+00 +0.0000000000e+00 +1.5785697100e+02 1.5785697100e+02 0.0000000000e+00 0.0000e+00 1.0000e+00
        3 -1    0    0  501    0 +0.0000000000e+00 -0.0000000000e+00 -1.2658834543e+01 1.2658834543e+01 0.0000000000e+00 0.0000e+00 -1.0000e+00
       23  2    1    2    0    0 +0.0000000000e+00 +0.0000000000e+00 +1.4519813646e+02 1.7051580554e+02 8.9404368514e+01 0.0000e+00 0.0000e+00
      -11  1    3    3    0    0 +1.2111505437e+01 -3.6312262833e+01 +1.1663185159e+02 1.2275283215e+02 0.0000000000e+00 0.0000e+00 1.0000e+00
       11  1    3    3    0    0 -1.2111505437e+01 +3.6312262833e+01 +2.8566284867e+01 4.7762973390e+01 0.0000000000e+00 0.0000e+00 -1.0000e+00
<mgrwt>
<rscale>  0 0.89404369E+02</rscale>
<asrwt>0</asrwt>
<pdfrwt beam="2">  1        3 0.19475131E-02 0.89404369E+02</pdfrwt>
<pdfrwt beam="1">  1       -3 0.24285687E-01 0.89404369E+02</pdfrwt>
<totfact> 0.31733719E+04</totfact>
</mgrwt>
</event>
<event>
 5      1 +1.6944000e+03 9.08712000e+01 7.81860800e-03 1.30075600e-01
       -2 -1    0    0    0  501 -0.0000000000e+00 +0.0000000000e+00 +3.8385366149e+01 3.8385366149e+01 0.0000000000e+00 0.0000e+00 1.0000e+00
        2 -1    0    0  501    0 +0.0000000000e+00 -0.0000000000e+00 -5.3780754007e+01 5.3780754007e+01 0.0000000000e+00 0.0000e+00 -1.0000e+00
       23  2    1    2    0    0 +0.0000000000e+00 +0.0000000000e+00 -1.5395387858e+01 9.2166120156e+01 9.0871204115e+01 0.0000e+00 0.0000e+00
      -11  1    3    3    0    0 -2.3659386639e+01 -3.0375781718e+01 -3.2164869893e+01 5.0170046306e+01 0.0000000000e+00 0.0000e+00 -1.0000e+00
       11  1    3    3    0    0 +2.3659386639e+01 +3.0375781718e+01 +1.6769482035e+01 4.1996073850e+01 0.0000000000e+00 0.0000e+00 1.0000e+00
<mgrwt>
<rscale>  0 0.90871204E+02</rscale>
<asrwt>0</asrwt>
<pdfrwt beam="2">  1        2 0.82739621E-02 0.90871204E+02</pdfrwt>
<pdfrwt beam="1">  1       -2 0.59054410E-02 0.90871204E+02</pdfrwt>
<totfact> 0.10401569E+05</totfact>
</mgrwt>
</event>
<event>
 5      1 +1.6944000e+03 9.14583500e+01 7.81860800e-03 1.29935800e-01
       -2 -1    0    0    0  501 -0.0000000000e+00 +0.0000000000e+00 +1.2950875185e+01 1.2950875185e+01 0.0000000000e+00 0.0000e+00 -1.0000e+00
        2 -1    0    0  501    0 +0.0000000000e+00 -0.0000000000e+00 -1.6146842844e+02 1.6146842844e+02 0.0000000000e+00 0.0000e+00 1.0000e+00
       23  2    1    2    0    0 +0.0000000000e+00 +0.0000000000e+00 -1.4851755326e+02 1.7441930363e+02 9.1458350369e+01 0.0000e+00 0.0000e+00
      -13  1    3    3    0    0 +2.1941040743e+01 +3.8281564020e+01 -5.1352248146e+01 6.7704806346e+01 0.0000000000e+00 0.0000e+00 -1.0000e+00
       13  1    3    3    0    0 -2.1941040743e+01 -3.8281564020e+01 -9.7165305112e+01 1.0671449728e+02 0.0000000000e+00 0.0000e+00 1.0000e+00
<mgrwt>
<rscale>  0 0.91458350E+02</rscale>
<asrwt>0</asrwt>
<pdfrwt beam="2">  1        2 0.24841295E-01 0.91458350E+02</pdfrwt>
<pdfrwt beam="1">  1       -2 0.19924425E-02 0.91458350E+02</pdfrwt>
<totfact> 0.14219491E+05</totfact>
</mgrwt>
</event>
<event>
 5      1 +1.6944000e+03 9.40231600e+01 7.81860800e-03 1.29339100e-01
       -1 -1    0    0    0  501 -0.0000000000e+00 +0.0000000000e+00 +8.6013014613e+00 8.6013014613e+00 0.0000000000e+00 0.0000e+00 1.0000e+00
        1 -1    0    0  501    0 +0.0000000000e+00 -0.0000000000e+00 -2.5694818378e+02 2.5694818378e+02 0.0000000000e+00 0.0000e+00 -1.0000e+00
       23  2    1    2    0    0 +0.0000000000e+00 +0.0000000000e+00 -2.4834688232e+02 2.6554948524e+02 9.4023162861e+01 0.0000e+00 0.0000e+00
      -11  1    3    3    0    0 +3.2362203315e+01 -1.9323754682e+01 -4.4822758802e+01 5.8564489283e+01 0.0000000000e+00 0.0000e+00 1.0000e+00
       11  1    3    3    0    0 -3.2362203315e+01 +1.9323754682e+01 -2.0352412351e+02 2.0698499596e+02 0.0000000000e+00 0.0000e+00 -1.0000e+00
<mgrwt>
<rscale>  0 0.94023163E+02</rscale>
<asrwt>0</asrwt>
<pdfrwt beam="2">  1        1 0.39530488E-01 0.94023163E+02</pdfrwt>
<pdfrwt beam="1">  1       -1 0.13232772E-02 0.94023163E+02</pdfrwt>
<totfact> 0.11451203E+05</totfact>
</mgrwt>
</event>
<event>
 5      1 +1.6944000e+03 9.08241500e+01 7.81860800e-03 1.30086800e-01
        2 -1    0    0  501    0 +0.0000000000e+00 +0.0000000000e+00 +7.0664589585e+01 7.0664589585e+01 0.0000000000e+00 0.0000e+00 -1.0000e+00
       -2 -1    0    0    0  501 -0.0000000000e+00 -0.0000000000e+00 -2.9183735187e+01 2.9183735187e+01 0.0000000000e+00 0.0000e+00 1.0000e+00
       23  2    1    2    0    0 +0.0000000000e+00 +0.0000000000e+00 +4.1480854398e+01 9.9848324772e+01 9.0824152505e+01 0.0000e+00 0.0000e+00
      -13  1    3    3    0    0 +2.4167307157e+01 -9.3351452753e+00 -2.0262160564e+01 3.2890102207e+01 0.0000000000e+00 0.0000e+00 1.0000e+00
       13  1    3    3    0    0 -2.4167307157e+01 +9.3351452753e+00 +6.1743014961e+01 6.6958222565e+01 0.0000000000e+00 0.0000e+00 -1.0000e+00
<mgrwt>
<rscale>  0 0.90824153E+02</rscale>
<asrwt>0</asrwt>
<pdfrwt beam="1">  1        2 0.10871475E-01 0.90824153E+02</pdfrwt>
<pdfrwt beam="2">  1       -2 0.44898054E-02 0.90824153E+02</pdfrwt>
<totfact> 0.11211771E+05</totfact>
</mgrwt>
</event>
<event>
 5      1 +1.6944000e+03 9.11493700e+01 7.81860800e-03 1.30009200e-01
        2 -1    0    0  501    0 +0.0000000000e+00 +0.0000000000e+00 +8.3234203443e+01 8.3234203443e+01 0.0000000000e+00 0.0000e+00 -1.0000e+00
       -2 -1    0    0    0  501 -0.0000000000e+00 -0.0000000000e+00 -2.4954308014e+01 2.4954308014e+01 0.0000000000e+00 0.0000e+00 1.0000e+00
       23  2    1    2    0    0 +0.0000000000e+00 +0.0000000000e+00 +5.8279895429e+01 1.0818851146e+02 9.1149370816e+01 0.0000e+00 0.0000e+00
      -13  1    3    3    0    0 -1.7161518927e+01 -4.1794482072e+01 +3.6237340095e+01 5.7917538628e+01 0.0000000000e+00 0.0000e+00 1.0000e+00
       13  1    3    3    0    0 +1.7161518927e+01 +4.1794482072e+01 +2.2042555333e+01 5.0270972829e+01 0.0000000000e+00 0.0000e+00 -1.0000e+00
<mgrwt>
<rscale>  0 0.91149371E+02</rscale>
<asrwt>0</asrwt>
<pdfrwt beam="1">  1        2 0.12805262E-01 0.91149371E+02</pdfrwt>
<pdfrwt beam="2">  1       -2 0.38391243E-02 0.91149371E+02</pdfrwt>
<totfact> 0.11626929E+05</totfact>
</mgrwt>
</event>
<event>
 5      1 +1.6944000e+03 9.13297600e+01 7.81860800e-03 1.29966300e-01
       -1 -1    0    0    0  501 -0.0000000000e+00 +0.0000000000e+00 +8.7913444260e+00 8.7913444260e+00 0.0000000000e+00 0.0000e+00 1.0000e+00
        1 -1    0    0  501    0 +0.0000000000e+00 -0.0000000000e+00 -2.3719709485e+02 2.3719709485e+02 0.0000000000e+00 0.0000e+00 -1.0000e+00
       23  2    1    2    0    0 +0.0000000000e+00 +0.0000000000e+00 -2.2840575042e+02 2.4598843927e+02 9.1329762020e+01 0.0000e+00 0.0000e+00
      -11  1    3    3    0    0 -4.5614631929e+01 +9.2406974894e-01 -1.0899908088e+02 1.1816238058e+02 0.0000000000e+00 0.0000e+00 1.0000e+00
       11  1    3    3    0    0 +4.5614631929e+01 -9.2406974894e-01 -1.1940666954e+02 1.2782605869e+02 0.0000000000e+00 0.0000e+00 -1.0000e+00
<mgrwt>
<rscale>  0 0.91329762E+02</rscale>
<asrwt>0</asrwt>
<pdfrwt beam="2">  1        1 0.36491861E-01 0.91329762E+02</pdfrwt>
<pdfrwt beam="1">  1       -1 0.13525145E-02 0.91329762E+02</pdfrwt>
<totfact> 0.12186125E+05</totfact>
</mgrwt>
</event>
<event>
 4      1 +1.6944000e+03 2.68580500e+01 7.81860800e-03 1.63566400e-01
       -2 -1    0    0    0  501 -0.0000000000e+00 +0.0000000000e+00 +1.3529929279e+01 1.3529929279e+01 0.0000000000e+00 0.0000e+00 1.0000e+00
        2 -1    0    0  501    0 +0.0000000000e+00 -0.0000000000e+00 -1.3328873261e+01 1.3328873261e+01 0.0000000000e+00 0.0000e+00 -1.0000e+00
      -13  1    1    2    0    0 -1.1565864226e+01 +4.6252029104e+00 +5.1183369147e+00 1.3466962910e+01 0.0000000000e+00 0.0000e+00 1.0000e+00
       13  1    1    2    0    0 +1.1565864226e+01 -4.6252029104e+00 -4.9172808967e+00 1.3391839630e+01 0.0000000000e+00 0.0000e+00 -1.0000e+00
<mgrwt>
<rscale>  0 0.26858050E+02</rscale>
<asrwt>0</asrwt>
<pdfrwt beam="2">  1        2 0.20505959E-02 0.26858050E+02</pdfrwt>
<pdfrwt beam="1">  1       -2 0.20815276E-02 0.26858050E+02</pdfrwt>
<totfact> 0.20236702E+06</totfact>
</mgrwt>
</event>
<event>
 5      1 +1.6944000e+03 9.34765800e+01 7.81860800e-03 1.29464500e-01
        2 -1    0    0  501    0 +0.0000000000e+00 +0.0000000000e+00 +1.1154489924e+01 1.1154489924e+01 0.0000000000e+00 0.0000e+00 -1.0000e+00
       -2 -1    0    0    0  501 -0.0000000000e+00 -0.0000000000e+00 -1.9583751768e+02 1.9583751768e+02 0.0000000000e+00 0.0000e+00 1.0000e+00
       23  2    1    2    0    0 +0.0000000000e+00 +0.0000000000e+00 -1.8468302775e+02 2.0699200760e+02 9.3476577123e+01 0.0000e+00 0.0000e+00
      -11  1    3    3    0    0 -1.2301337674e+01 +4.0374925941e+01 -1.3679529649e+02 1.4315869061e+02 0.0000000000e+00 0.0000e+00 1.0000e+00
       11  1    3    3    0    0 +1.2301337674e+01 -4.0374925941e+01 -4.7887731260e+01 6.3833316995e+01 0.0000000000e+00 0.0000e+00 -1.0000e+00
<mgrwt>
<rscale>  0 0.93476577E+02</rscale>
<asrwt>0</asrwt>
<pdfrwt beam="1">  1        2 0.17160754E-02 0.93476577E+02</pdfrwt>
<pdfrwt beam="2">  1       -2 0.30128848E-01 0.93476577E+02</pdfrwt>
<totfact> 0.59007773E+04</totfact>
</mgrwt>
</event>
<event>
 5      1 +1.6944000e+03 8.80003200e+01 7.81860800e-03 1.30776800e-01
        1 -1    0    0  501    0 +0.0000000000e+00 +0.0000000000e+00 +2.5372729983e+01 2.5372729983e+01 0.0000000000e+00 0.0000e+00 -1.0000e+00
       -1 -1    0    0    0  501 -0.0000000000e+00 -0.0000000000e+00 -7.6302942632e+01 7.6302942632e+01 0.0000000000e+00 0.0000e+00 1.0000e+00
       23  2    1    2    0    0 +0.0000000000e+00 +0.0000000000e+00 -5.0930212649e+01 1.0167567262e+02 8.8000317280e+01 0.0000e+00 0.0000e+00
      -13  1    3    3    0    0 +1.2331508020e+01 -1.1779099416e+00 +2.3316370382e+01 2.6402778067e+01 0.0000000000e+00 0.0000e+00 -1.0000e+00
       13  1    3    3    0    0 -1.2331508020e+01 +1.1779099416e+00 -7.4246583031e+01 7.5272894548e+01 0.0000000000e+00 0.0000e+00 1.0000e+00
<mgrwt>
<rscale>  0 0.88000317E+02</rscale>
<asrwt>0</asrwt>
<pdfrwt beam="1">  1        1 0.39034970E-02 0.88000317E+02</pdfrwt>
<pdfrwt beam="2">  1       -1 0.11738914E-01 0.88000317E+02</pdfrwt>
<totfact> 0.93409626E+04</totfact>
</mgrwt>
</event>
<event>
 5      1 +1.6944000e+03 9.00560100e+01 7.81860800e-03 1.30271600e-01
       -4 -1    0    0    0  501 -0.0000000000e+00 +0.0000000000e+00 +8.9240773506e+01 8.9240773506e+01 0.0000000000e+00 0.0000e+00 -1.0000e+00
        4 -1    0    0  501    0 +0.0000000000e+00 -0.0000000000e+00 -2.2719671317e+01 2.2719671317e+01 0.0000000000e+00 0.0000e+00 1.0000e+00
       23  2    1    2    0    0 +0.0000000000e+00 +0.0000000000e+00 +6.6521102189e+01 1.1196044482e+02 9.0056005733e+01 0.0000e+00 0.0000e+00
      -11  1    3    3    0    0 +4.0248544104e+00 +3.7042345710e+01 +6.4692089224e+01 7.4655215738e+01 0.0000000000e+00 0.0000e+00 -1.0000e+00
       11  1    3    3    0    0 -4.0248544104e+00 -3.7042345710e+01 +1.8290129647e+00 3.7305229085e+01 0.0000000000e+00 0.0000e+00 1.0000e+00
<mgrwt>
<rscale>  0 0.90056006E+02</rscale>
<asrwt>0</asrwt>
<pdfrwt beam="2">  1        4 0.34953341E-02 0.90056006E+02</pdfrwt>
<pdfrwt beam="1">  1       -4 0.13729350E-01 0.90056006E+02</pdfrwt>
<totfact> 0.26610336E+04</totfact>
</mgrwt>
</event>
<event>
 5      1 +1.6944000e+03 1.02211700e+02 7.81860800e-03 1.27571300e-01
        4 -1    0    0  501    0 +0.0000000000e+00 +0.0000000000e+00 +9.8027787859e+01 9.8027787859e+01 0.0000000000e+00 0.0000e+00 -1.0000e+00
       -4 -1    0    0    0  501 -0.0000000000e+00 -0.0000000000e+00 -2.6643549435e+01 2.6643549435e+01 0.0000000000e+00 0.0000e+00 1.0000e+00
       23  2    1    2    0    0 +0.0000000000e+00 +0.0000000000e+00 +7.1384238425e+01 1.2467133729e+02 1.0221170602e+02 0.0000e+00 0.0000e+00
      -11  1    3    3    0    0 -4.4329499096e+01 -1.1035634957e+00 +4.7029915953e+00 4.4591932818e+01 0.0000000000e+00 0.0000e+00 1.0000e+00
       11  1    3    3    0    0 +4.4329499096e+01 +1.1035634957e+00 +6.6681246829e+01 8.0079404476e+01 0.0000000000e+00 0.0000e+00 -1.0000e+00
<mgrwt>
<rscale>  0 0.10221171E+03</rscale>
<asrwt>0</asrwt>
<pdfrwt beam="1">  1        4 0.15081198E-01 0.10221171E+03</pdfrwt>
<pdfrwt beam="2">  1       -4 0.40990076E-02 0.10221171E+03</pdfrwt>
<totfact> 0.18321051E+04</totfact>
</mgrwt>
</event>
<event>
 5      1 +1.6944000e+03 8.87193000e+01 7.81860800e-03 1.30598300e-01
        2 -1    0    0  501    0 +0.0000000000e+00 +0.0000000000e+00 +4.6133334956e+01 4.6133334956e+01 0.0000000000e+00 0.0000e+00 1.0000e+00
       -2 -1    0    0    0  501 -0.0000000000e+00 -0.0000000000e+00 -4.2654156108e+01 4.2654156108e+01 0.0000000000e+00 0.0000e+00 -1.0000e+00
       23  2    1    2    0    0 +0.0000000000e+00 +0.0000000000e+00 +3.4791788476e+00 8.8787491064e+01 8.8719298262e+01 0.0000e+00 0.0000e+00
      -11  1    3    3    0    0 +3.6853364294e+01 -2.0852241913e+01 -1.1491465878e+01 4.3875280519e+01 0.0000000000e+00 0.0000e+00 -1.0000e+00
       11  1    3    3    0    0 -3.6853364294e+01 +2.0852241913e+01 +1.4970644726e+01 4.4912210545e+01 0.0000000000e+00 0.0000e+00 1.0000e+00
<mgrwt>
<rscale>  0 0.88719298E+02</rscale>
<asrwt>0</asrwt>
<pdfrwt beam="1">  1        2 0.70974361E-02 0.88719298E+02</pdfrwt>
<pdfrwt beam="2">  1       -2 0.65621779E-02 0.88719298E+02</pdfrwt>
<totfact> 0.10701629E+05</totfact>
</mgrwt>
</event>
<event>
 5      1 +1.6944000e+03 9.08624900e+01 7.81860800e-03 1.30077600e-01
       -2 -1    0    0    0  501 -0.0000000000e+00 +0.0000000000e+00 +3.6809559326e+02 3.6809559326e+02 0.0000000000e+00 0.0000e+00 1.0000e+00
        2 -1    0    0  501    0 +0.0000000000e+00 -0.0000000000e+00 -5.6072332311e+00 5.6072332311e+00 0.0000000000e+00 0.0000e+00 -1.0000e+00
       23  2    1    2    0    0 +0.0000000000e+00 +0.0000000000e+00 +3.6248836003e+02 3.7370282649e+02 9.0862486050e+01 0.0000e+00 0.0000e+00
      -13  1    3    3    0    0 -2.2728763685e+01 -3.5785619363e+01 +2.4842217258e+02 2.5201345813e+02 0.0000000000e+00 0.0000e+00 1.0000e+00
       13  1    3    3    0    0 +2.2728763685e+01 +3.5785619363e+01 +1.1406618745e+02 1.2168936836e+02 0.0000000000e+00 0.0000e+00 -1.0000e+00
<mgrwt>
<rscale>  0 0.90862486E+02</rscale>
<asrwt>0</asrwt>
<pdfrwt beam="2">  1        2 0.86265156E-03 0.90862486E+02</pdfrwt>
<pdfrwt beam="1">  1       -2 0.56630072E-01 0.90862486E+02</pdfrwt>
<totfact> 0.45499884E+04</totfact>
</mgrwt>
</event>
<event>
 5      1 +1.6944000e+03 8.98224400e+01 7.81860800e-03 1.30328200e-01
        1 -1    0    0  501    0 +0.0000000000e+00 +0.0000000000e+00 +3.4116581155e+01 3.4116581155e+01 0.0000000000e+00 0.0000e+00 -1.0000e+00
       -1 -1    0    0    0  501 -0.0000000000e+00 -0.0000000000e+00 -5.9121333989e+01 5.9121333989e+01 0.0000000000e+00 0.0000e+00 1.0000e+00
       23  2    1    2    0    0 +0.0000000000e+00 +0.0000000000e+00 -2.5004752834e+01 9.3237915143e+01 8.9822442385e+01 0.0000e+00 0.0000e+00
      -11  1    3    3    0    0 +3.5174895669e+01 +1.5780685673e+00 -4.1441757158e+01 5.4379985491e+01 0.0000000000e+00 0.0000e+00 1.0000e+00
       11  1    3    3    0    0 -3.5174895669e+01 -1.5780685673e+00 +1.6437004324e+01 3.8857929652e+01 0.0000000000e+00 0.0000e+00 -1.0000e+00
<mgrwt>
<rscale>  0 0.89822442E+02</rscale>
<asrwt>0</asrwt>
<pdfrwt beam="1">  1        1 0.52487048E-02 0.89822442E+02</pdfrwt>
<pdfrwt beam="2">  1       -1 0.90955898E-02 0.89822442E+02</pdfrwt>
<totfact> 0.92316578E+04</totfact>
</mgrwt>
</event>
<event>
 5      1 +1.6944000e+03 9.09254700e+01 7.81860800e-03 1.30062600e-01
       -4 -1    0    0    0  501 -0.0000000000e+00 +0.0000000000e+00 +2.6457838551e+01 2.6457838551e+01 0.0000000000e+00 0.0000e+00 1.0000e+00
        4 -1    0    0  501    0 +0.0000000000e+00 -0.0000000000e+00 -7.8119016094e+01 7.8119016094e+01 0.0000000000e+00 0.0000e+00 -1.0000e+00
       23  2    1    2    0    0 +0.0000000000e+00 +0.0000000000e+00 -5.1661177543e+01 1.0457685465e+02 9.0925470921e+01 0.0000e+00 0.0000e+00
      -11  1    3    3    0    0 +2.2961322312e+01 -3.9066260559e+01 -2.1610149096e+01 5.0203521593e+01 0.0000000000e+00 0.0000e+00 1.0000e+00
       11  1    3    3    0    0 -2.2961322312e+01 +3.9066260559e+01 -3.0051028448e+01 5.4373333052e+01 0.0000000000e+00 0.0000e+00 -1.0000e+00
<mgrwt>
<rscale>  0 0.90925471E+02</rscale>
<asrwt>0</asrwt>
<pdfrwt beam="2">  1        4 0.12018310E-01 0.90925471E+02</pdfrwt>
<pdfrwt beam="1">  1       -4 0.40704366E-02 0.90925471E+02</pdfrwt>
<totfact> 0.26374333E+04</totfact>
</mgrwt>
</event>
<event>
 4      1 +1.6944000e+03 3.26805900e+01 7.81860800e-03 1.57021800e-01
        2 -1    0    0  501    0 +0.0000000000e+00 +0.0000000000e+00 +5.0108360283e+01 5.0108360283e+01 0.0000000000e+00 0.0000e+00 1.0000e+00
       -2 -1    0    0    0  501 -0.0000000000e+00 -0.0000000000e+00 -5.3285554730e+00 5.3285554730e+00 0.0000000000e+00 0.0000e+00 -1.0000e+00
      -11  1    1    2    0    0 -1.1118998708e+01 -1.0641893885e+01 +3.1700109492e+01 3.5238884482e+01 0.0000000000e+00 0.0000e+00 1.0000e+00
       11  1    1    2    0    0 +1.1118998708e+01 +1.0641893885e+01 +1.3079695319e+01 2.0198031274e+01 0.0000000000e+00 0.0000e+00 -1.0000e+00
<mgrwt>
<rscale>  0 0.32680586E+02</rscale>
<asrwt>0</asrwt>
<pdfrwt beam="1">  1        2 0.77089782E-02 0.32680586E+02</pdfrwt>
<pdfrwt beam="2">  1       -2 0.81977780E-03 0.32680586E+02</pdfrwt>
<totfact> 0.14812674E+06</totfact>
</mgrwt>
</event>
<event>
 4      1 +1.6944000e+03 4.78350100e+01 7.81860800e-03 1.45738100e-01
        2 -1    0    0  501    0 +0.0000000000e+00 +0.0000000000e+00 +2.0990653004e+01 2.0990653004e+01 0.0000000000e+00 0.0000e+00 1.0000e+00
       -2 -1    0    0    0  501 -0.0000000000e+00 -0.0000000000e+00 -2.7252468531e+01 2.7252468531e+01 0.0000000000e+00 0.0000e+00 -1.0000e+00
      -13  1    1    2    0    0 -1.3655342448e+01 -1.8631951769e+01 +3.1211020283e+00 2.3310068253e+01 0.0000000000e+00 0.0000e+00 1.0000e+00
       13  1    1    2    0    0 +1.3655342448e+01 +1.8631951769e+01 -9.3829175556e+00 2.4933053282e+01 0.0000000000e+00 0.0000e+00 -1.0000e+00
<mgrwt>
<rscale>  0 0.47835013E+02</rscale>
<asrwt>0</asrwt>
<pdfrwt beam="1">  1        2 0.32293312E-02 0.47835013E+02</pdfrwt>
<pdfrwt beam="2">  1       -2 0.41926875E-02 0.47835013E+02</pdfrwt>
<totfact> 0.49886797E+05</totfact>
</mgrwt>
</event>
<event>
 5      1 +1.6944000e+03 9.24656600e+01 7.81860800e-03 1.29698800e-01
        3 -1    0    0  501    0 +0.0000000000e+00 +0.0000000000e+00 +3.7039819619e+02 3.7039819619e+02 0.0000000000e+00 0.0000e+00 -1.0000e+00
       -3 -1    0    0    0  501 -0.0000000000e+00 -0.0000000000e+00 -5.7707481892e+00 5.7707481892e+00 0.0000000000e+00 0.0000e+00 1.0000e+00
       23  2    1    2    0    0 +0.0000000000e+00 +0.0000000000e+00 +3.6462744800e+02 3.7616894438e+02 9.2465663247e+01 0.0000e+00 0.0000e+00
      -13  1    3    3    0    0 -5.2978948892e+00 +4.2679664267e+01 +1.1329164344e+02 1.2118010524e+02 0.0000000000e+00 0.0000e+00 -1.0000e+00
       13  1    3    3    0    0 +5.2978948892e+00 -4.2679664267e+01 +2.5133580455e+02 2.5498883914e+02 0.0000000000e+00 0.0000e+00 1.0000e+00
<mgrwt>
<rscale>  0 0.92465663E+02</rscale>
<asrwt>0</asrwt>
<pdfrwt beam="1">  1        3 0.56984319E-01 0.92465663E+02</pdfrwt>
<pdfrwt beam="2">  1       -3 0.88780770E-03 0.92465663E+02</pdfrwt>
<totfact> 0.20565705E+04</totfact>
</mgrwt>
</event>
<event>
 5      1 +1.6944000e+03 9.30402300e+01 7.81860800e-03 1.29565200e-01
        3 -1    0    0  501    0 +0.0000000000e+00 +0.0000000000e+00 +2.8164262498e+02 2.8164262498e+02 0.0000000000e+00 0.0000e+00 -1.0000e+00
       -3 -1    0    0    0  501 -0.0000000000e+00 -0.0000000000e+00 -7.6839256344e+00 7.6839256344e+00 0.0000000000e+00 0.0000e+00 1.0000e+00
       23  2    1    2    0    0 +0.0000000000e+00 +0.0000000000e+00 +2.7395869935e+02 2.8932655062e+02 9.3040227555e+01 0.0000e+00 0.0000e+00
      -13  1    3    3    0    0 -2.4338532810e+01 -3.8801009242e+01 +1.6228821832e+02 1.6862783964e+02 0.0000000000e+00 0.0000e+00 1.0000e+00
       13  1    3    3    0    0 +2.4338532810e+01 +3.8801009242e+01 +1.1167048103e+02 1.2069871098e+02 0.0000000000e+00 0.0000e+00 -1.0000e+00
<mgrwt>
<rscale>  0 0.93040228E+02</rscale>
<asrwt>0</asrwt>
<pdfrwt beam="1">  1        3 0.43329627E-01 0.93040228E+02</pdfrwt>
<pdfrwt beam="2">  1       -3 0.11821426E-02 0.93040228E+02</pdfrwt>
<totfact> 0.23154214E+04</totfact>
</mgrwt>
</event>
<event>
 5      1 +1.6944000e+03 9.00496200e+01 7.81860800e-03 1.30273200e-01
       -4 -1    0    0    0  501 -0.0000000000e+00 +0.0000000000e+00 +6.0808552105e+00 6.0808552105e+00 0.0000000000e+00 0.0000e+00 1.0000e+00
        4 -1    0    0  501    0 +0.0000000000e+00 -0.0000000000e+00 -3.3337967309e+02 3.3337967309e+02 0.0000000000e+00 0.0000e+00 -1.0000e+00
       23  2    1    2    0    0 +0.0000000000e+00 +0.0000000000e+00 -3.2729881788e+02 3.3946052830e+02 9.0049620148e+01 0.0000e+00 0.0000e+00
      -11  1    3    3    0    0 -2.9183093875e+00 +4.4841258200e+01 -1.5300137236e+02 1.5946371033e+02 0.0000000000e+00 0.0000e+00 1.0000e+00
       11  1    3    3    0    0 +2.9183093875e+00 -4.4841258200e+01 -1.7429744552e+02 1.7999681797e+02 0.0000000000e+00 0.0000e+00 -1.0000e+00
<mgrwt>
<rscale>  0 0.90049620E+02</rscale>
<asrwt>0</asrwt>
<pdfrwt beam="2">  1        4 0.51289193E-01 0.90049620E+02</pdfrwt>
<pdfrwt beam="1">  1       -4 0.93551596E-03 0.90049620E+02</pdfrwt>
<totfact> 0.17239014E+04</totfact>
</mgrwt>
</event>
<event>
 5      1 +1.6944000e+03 9.14344300e+01 7.81860800e-03 1.29941500e-01
       -1 -1    0    0    0  501 -0.0000000000e+00 +0.0000000000e+00 +5.5802940508e+01 5.5802940508e+01 0.0000000000e+00 0.0000e+00 1.0000e+00
        1 -1    0    0  501    0 +0.0000000000e+00 -0.0000000000e+00 -3.7454361887e+01 3.7454361887e+01 0.0000000000e+00 0.0000e+00 -1.0000e+00
       23  2    1    2    0    0 +0.0000000000e+00 +0.0000000000e+00 +1.8348578620e+01 9.3257302395e+01 9.1434425205e+01 0.0000e+00 0.0000e+00
      -13  1    3    3    0    0 -9.6662725701e+00 +7.9478377725e+00 +5.4022027559e+01 5.5452541982e+01 0.0000000000e+00 0.0000e+00 1.0000e+00
       13  1    3    3    0    0 +9.6662725701e+00 -7.9478377725e+00 -3.5673448939e+01 3.7804760413e+01 0.0000000000e+00 0.0000e+00 -1.0000e+00
<mgrwt>
<rscale>  0 0.91434425E+02</rscale>
<asrwt>0</asrwt>
<pdfrwt beam="2">  1        1 0.57622096E-02 0.91434425E+02</pdfrwt>
<pdfrwt beam="1">  1       -1 0.85850677E-02 0.91434425E+02</pdfrwt>
<totfact> 0.89042322E+04</totfact>
</mgrwt>
</event>
<event>
 5      1 +1.6944000e+03 8.02304100e+01 7.81860800e-03 1.32839900e-01
       -1 -1    0    0    0  501 -0.0000000000e+00 +0.0000000000e+00 +9.6977642259e+00 9.6977642259e+00 0.0000000000e+00 0.0000e+00 1.0000e+00
        1 -1    0    0  501    0 +0.0000000000e+00 -0.0000000000e+00 -1.6593819970e+02 1.6593819970e+02 0.0000000000e+00 0.0000e+00 -1.0000e+00
       23  2    1    2    0    0 +0.0000000000e+00 +0.0000000000e+00 -1.5624043547e+02 1.7563596392e+02 8.0230406623e+01 0.0000e+00 0.0000e+00
      -13  1    3    3    0    0 +3.3563279559e+01 +9.1059098496e-01 -3.0063300946e+01 4.5068003888e+01 0.0000000000e+00 0.0000e+00 1.0000e+00
       13  1    3    3    0    0 -3.3563279559e+01 -9.1059098496e-01 -1.2617713452e+02 1.3056796003e+02 0.0000000000e+00 0.0000e+00 -1.0000e+00
<mgrwt>
<rscale>  0 0.80230407E+02</rscale>
<asrwt>0</asrwt>
<pdfrwt beam="2">  1        1 0.25528953E-01 0.80230407E+02</pdfrwt>
<pdfrwt beam="1">  1       -1 0.14919637E-02 0.80230407E+02</pdfrwt>
<totfact> 0.16077846E+05</totfact>
</mgrwt>
</event>
<event>
 5      1 +1.6944000e+03 8.87312300e+01 7.81860800e-03 1.30595400e-01
       -1 -1    0    0    0  501 -0.0000000000e+00 +0.0000000000e+00 +9.1995851355e+00 9.1995851355e+00 0.0000000000e+00 0.0000e+00 1.0000e+00
        1 -1    0    0  501    0 +0.0000000000e+00 -0.0000000000e+00 -2.1395614618e+02 2.1395614618e+02 0.0000000000e+00 0.0000e+00 -1.0000e+00
       23  2    1    2    0    0 +0.0000000000e+00 +0.0000000000e+00 -2.0475656105e+02 2.2315573132e+02 8.8731229724e+01 0.0000e+00 0.0000e+00
      -11  1    3    3    0    0 -2.9572866301e+01 -2.1850365192e+01 -3.9942595762e+01 5.4289997573e+01 0.0000000000e+00 0.0000e+00 1.0000e+00
       11  1    3    3    0    0 +2.9572866301e+01 +2.1850365192e+01 -1.6481396529e+02 1.6886573375e+02 0.0000000000e+00 0.0000e+00 -1.0000e+00
<mgrwt>
<rscale>  0 0.88731230E+02</rscale>
<asrwt>0</asrwt>
<pdfrwt beam="2">  1        1 0.32916329E-01 0.88731230E+02</pdfrwt>
<pdfrwt beam="1">  1       -1 0.14153208E-02 0.88731230E+02</pdfrwt>
<totfact> 0.12901311E+05</totfact>
</mgrwt>
</event>
<event>
 5      1 +1.6944000e+03 9.35524700e+01 7.81860800e-03 1.29447000e-01
        1 -1    0    0  501    0 +0.0000000000e+00 +0.0000000000e+00 +1.2287624597e+01 1.2287624597e+01 0.0000000000e+00 0.0000e+00 -1.0000e+00
       -1 -1    0    0    0  501 -0.0000000000e+00 -0.0000000000e+00 -1.7806663946e+02 1.7806663946e+02 0.0000000000e+00 0.0000e+00 1.0000e+00
       23  2    1    2    0    0 +0.0000000000e+00 +0.0000000000e+00 -1.6577901486e+02 1.9035426406e+02 9.3552466968e+01 0.0000e+00 0.0000e+00
      -13  1    3    3    0    0 -2.6098585194e+01 -1.4040740327e+01 -1.5652708503e+02 1.5930789964e+02 0.0000000000e+00 0.0000e+00 1.0000e+00
       13  1    3    3    0    0 +2.6098585194e+01 +1.4040740327e+01 -9.2519298296e+00 3.1046364419e+01 0.0000000000e+00 0.0000e+00 -1.0000e+00
<mgrwt>
<rscale>  0 0.93552467E+02</rscale>
<asrwt>0</asrwt>
<pdfrwt beam="1">  1        1 0.18904037E-02 0.93552467E+02</pdfrwt>
<pdfrwt beam="2">  1       -1 0.27394868E-01 0.93552467E+02</pdfrwt>
<totfact> 0.67027512E+04</totfact>
</mgrwt>
</event>
<event>
 5      1 +1.6944000e+03 9.05140100e+01 7.81860800e-03 1.30161200e-01
        1 -1    0    0  501    0 +0.0000000000e+00 +0.0000000000e+00 +3.1936376606e+02 3.1936376606e+02 0.0000000000e+00 0.0000e+00 -1.0000e+00
       -1 -1    0    0    0  501 -0.0000000000e+00 -0.0000000000e+00 -6.4133656654e+00 6.4133656654e+00 0.0000000000e+00 0.0000e+00 1.0000e+00
       23  2    1    2    0    0 +0.0000000000e+00 +0.0000000000e+00 +3.1295040040e+02 3.2577713173e+02 9.0514012441e+01 0.0000e+00 0.0000e+00
      -11  1    3    3    0    0 -3.2742121732e+01 -2.4238423412e+01 +8.5520118690e+01 9.4727178813e+01 0.0000000000e+00 0.0000e+00 1.0000e+00
       11  1    3    3    0    0 +3.2742121732e+01 +2.4238423412e+01 +2.2743028171e+02 2.3104995291e+02 0.0000000000e+00 0.0000e+00 -1.0000e+00
<mgrwt>
<rscale>  0 0.90514012E+02</rscale>
<asrwt>0</asrwt>
<pdfrwt beam="1">  1        1 0.49132875E-01 0.90514012E+02</pdfrwt>
<pdfrwt beam="2">  1       -1 0.98667189E-03 0.90514012E+02</pdfrwt>
<totfact> 0.13218433E+05</totfact>
</mgrwt>
</event>
<event>
 5      1 +1.6944000e+03 9.08522600e+01 7.81860800e-03 1.30080100e-01
        2 -1    0    0  501    0 +0.0000000000e+00 +0.0000000000e+00 +1.0719514602e+01 1.0719514602e+01 0.0000000000e+00 0.0000e+00 -1.0000e+00
       -2 -1    0    0    0  501 -0.0000000000e+00 -0.0000000000e+00 -1.9250250172e+02 1.9250250172e+02 0.0000000000e+00 0.0000e+00 1.0000e+00
       23  2    1    2    0    0 +0.0000000000e+00 +0.0000000000e+00 -1.8178298712e+02 2.0322201632e+02 9.0852262009e+01 0.0000e+00 0.0000e+00
      -11  1    3    3    0    0 +4.3073694894e+01 +1.4119942206e+00 -1.2301149915e+02 1.3034249439e+02 0.0000000000e+00 0.0000e+00 1.0000e+00
       11  1    3    3    0    0 -4.3073694894e+01 -1.4119942206e+00 -5.8771487963e+01 7.2879521931e+01 0.0000000000e+00 0.0000e+00 -1.0000e+00
<mgrwt>
<rscale>  0 0.90852262E+02</rscale>
<asrwt>0</asrwt>
<pdfrwt beam="1">  1        2 0.16491564E-02 0.90852262E+02</pdfrwt>
<pdfrwt beam="2">  1       -2 0.29615764E-01 0.90852262E+02</pdfrwt>
<totfact> 0.63925321E+04</totfact>
</mgrwt>
</event>
<event>
 5      1 +1.6944000e+03 8.99614700e+01 7.81860800e-03 1.30294500e-01
       -4 -1    0    0    0  501 -0.0000000000e+00 +0.0000000000e+00 +1.0239978752e+02 1.0239978752e+02 0.0000000000e+00 0.0000e+00 1.0000e+00
        4 -1    0    0  501    0 +0.0000000000e+00 -0.0000000000e+00 -1.9758503020e+01 1.9758503020e+01 0.0000000000e+00 0.0000e+00 -1.0000e+00
       23  2    1    2    0    0 +0.0000000000e+00 +0.0000000000e+00 +8.2641284498e+01 1.2215829054e+02 8.9961469774e+01 0.0000e+00 0.0000e+00
      -11  1    3    3    0    0 -2.4578096986e+00 +1.6993351698e+01 +9.7774682167e+01 9.9270858279e+01 0.0000000000e+00 0.0000e+00 1.0000e+00
       11  1    3    3    0    0 +2.4578096986e+00 -1.6993351698e+01 -1.5133397669e+01 2.2887432260e+01 0.0000000000e+00 0.0000e+00 -1.0000e+00
<mgrwt>
<rscale>  0 0.89961470E+02</rscale>
<asrwt>0</asrwt>
<pdfrwt beam="2">  1        4 0.30397697E-02 0.89961470E+02</pdfrwt>
<pdfrwt beam="1">  1       -4 0.15753813E-01 0.89961470E+02</pdfrwt>
<totfact> 0.26076860E+04</totfact>
</mgrwt>
</event>
<event>
 5      1 +1.6944000e+03 9.14083400e+01 7.81860800e-03 1.29947700e-01
       -1 -1    0    0    0  501 -0.0000000000e+00 +0.0000000000e+00 +4.8194126762e+01 4.8194126762e+01 0.0000000000e+00 0.0000e+00 1.0000e+00
        1 -1    0    0  501    0 +0.0000000000e+00 -0.0000000000e+00 -4.3342861797e+01 4.3342861797e+01 0.0000000000e+00 0.0000e+00 -1.0000e+00
       23  2    1    2    0    0 +0.0000000000e+00 +0.0000000000e+00 +4.8512649656e+00 9.1536988559e+01 9.1408344820e+01 0.0000e+00 0.0000e+00
      -11  1    3    3    0    0 +3.7938655386e+01 -3.8383197460e+00 -2.2805006198e+01 4.4431324296e+01 0.0000000000e+00 0.0000e+00 -1.0000e+00
       11  1    3    3    0    0 -3.7938655386e+01 +3.8383197460e+00 +2.7656271163e+01 4.7105664263e+01 0.0000000000e+00 0.0000e+00 1.0000e+00
<mgrwt>
<rscale>  0 0.91408345E+02</rscale>
<asrwt>0</asrwt>
<pdfrwt beam="2">  1        1 0.66681326E-02 0.91408345E+02</pdfrwt>
<pdfrwt beam="1">  1       -1 0.74144811E-02 0.91408345E+02</pdfrwt>
<totfact> 0.91118431E+04</totfact>
</mgrwt>
</event>
<event>
 5      1 +1.6944000e+03 8.84822700e+01 7.81860800e-03 1.30656900e-01
        1 -1    0    0  501    0 +0.0000000000e+00 +0.0000000000e+00 +2.0250254690e+02 2.0250254690e+02 0.0000000000e+00 0.0000e+00 -1.0000e+00
       -1 -1    0    0    0  501 -0.0000000000e+00 -0.0000000000e+00 -9.6654478759e+00 9.6654478759e+00 0.0000000000e+00 0.0000e+00 1.0000e+00
       23  2    1    2    0    0 +0.0000000000e+00 +0.0000000000e+00 +1.9283709902e+02 2.1216799477e+02 8.8482265156e+01 0.0000e+00 0.0000e+00
      -13  1    3    3    0    0 -2.5908000795e+01 -2.2361143634e+01 +1.6364557692e+02 1.6718588486e+02 0.0000000000e+00 0.0000e+00 -1.0000e+00
       13  1    3    3    0    0 +2.5908000795e+01 +2.2361143634e+01 +2.9191522097e+01 4.4982109912e+01 0.0000000000e+00 0.0000e+00 1.0000e+00
<mgrwt>
<rscale>  0 0.88482265E+02</rscale>
<asrwt>0</asrwt>
<pdfrwt beam="1">  1        1 0.31154235E-01 0.88482265E+02</pdfrwt>
<pdfrwt beam="2">  1       -1 0.14869921E-02 0.88482265E+02</pdfrwt>
<totfact> 0.12860967E+05</totfact>
</mgrwt>
</event>
<event>
 5      1 +1.6944000e+03 9.46757700e+01 7.81860800e-03 1.29190800e-01
        3 -1    0    0  501    0 +0.0000000000e+00 +0.0000000000e+00 +7.8624059957e+01 7.8624059957e+01 0.0000000000e+00 0.0000e+00 -1.0000e+00
       -3 -1    0    0    0  501 -0.0000000000e+00 -0.0000000000e+00 -2.8501141595e+01 2.8501141595e+01 0.0000000000e+00 0.0000e+00 1.0000e+00
       23  2    1    2    0    0 +0.0000000000e+00 +0.0000000000e+00 +5.0122918362e+01 1.0712520155e+02 9.4675772310e+01 0.0000e+00 0.0000e+00
      -11  1    3    3    0    0 -4.5981141442e+01 +1.0779200435e+01 +2.1409175818e+01 5.1853730237e+01 0.0000000000e+00 0.0000e+00 1.0000e+00
       11  1    3    3    0    0 +4.5981141442e+01 -1.0779200435e+01 +2.8713742544e+01 5.5271471314e+01 0.0000000000e+00 0.0000e+00 -1.0000e+00
<mgrwt>
<rscale>  0 0.94675772E+02</rscale>
<asrwt>0</asrwt>
<pdfrwt beam="1">  1        3 0.12096009E-01 0.94675772E+02</pdfrwt>
<pdfrwt beam="2">  1       -3 0.43847910E-02 0.94675772E+02</pdfrwt>
<totfact> 0.30814708E+04</totfact>
</mgrwt>
</event>
<event>
 5      1 +1.6944000e+03 9.18098700e+01 7.81860800e-03 1.29852700e-01
        1 -1    0    0  501    0 +0.0000000000e+00 +0.0000000000e+00 +9.2412148154e+01 9.2412148154e+01 0.0000000000e+00 0.0000e+00 -1.0000e+00
       -1 -1    0    0    0  501 -0.0000000000e+00 -0.0000000000e+00 -2.2802878510e+01 2.2802878510e+01 0.0000000000e+00 0.0000e+00 1.0000e+00
       23  2    1    2    0    0 +0.0000000000e+00 +0.0000000000e+00 +6.9609269644e+01 1.1521502666e+02 9.1809868472e+01 0.0000e+00 0.0000e+00
      -11  1    3    3    0    0 -1.4556996811e+01 -2.4281530983e+01 -1.0542736687e+01 3.0210067857e+01 0.0000000000e+00 0.0000e+00 1.0000e+00
       11  1    3    3    0    0 +1.4556996811e+01 +2.4281530983e+01 +8.0152006331e+01 8.5004958808e+01 0.0000000000e+00 0.0000e+00 -1.0000e+00
<mgrwt>
<rscale>  0 0.91809868E+02</rscale>
<asrwt>0</asrwt>
<pdfrwt beam="1">  1        1 0.14217253E-01 0.91809868E+02</pdfrwt>
<pdfrwt beam="2">  1       -1 0.35081352E-02 0.91809868E+02</pdfrwt>
<totfact> 0.10116944E+05</totfact>
</mgrwt>
</event>
<event>
 5      1 +1.6944000e+03 9.31838900e+01 7.81860800e-03 1.29532000e-01
        2 -1    0    0  501    0 +0.0000000000e+00 +0.0000000000e+00 +3.8325628243e+01 3.8325628243e+01 0.0000000000e+00 0.0000e+00 -1.0000e+00
       -2 -1    0    0    0  501 -0.0000000000e+00 -0.0000000000e+00 -5.6641199843e+01 5.6641199843e+01 0.0000000000e+00 0.0000e+00 1.0000e+00
       23  2    1    2    0    0 +0.0000000000e+00 +0.0000000000e+00 -1.8315571600e+01 9.4966828086e+01 9.3183894927e+01 0.0000e+00 0.0000e+00
      -11  1    3    3    0    0 -2.7393545193e+01 -1.1525397862e+01 +2.7411479686e+01 4.0430561865e+01 0.0000000000e+00 0.0000e+00 -1.0000e+00
       11  1    3    3    0    0 +2.7393545193e+01 +1.1525397862e+01 -4.5727051286e+01 5.4536266222e+01 0.0000000000e+00 0.0000e+00 1.0000e+00
<mgrwt>
<rscale>  0 0.93183895E+02</rscale>
<asrwt>0</asrwt>
<pdfrwt beam="1">  1        2 0.58962505E-02 0.93183895E+02</pdfrwt>
<pdfrwt beam="2">  1       -2 0.87140307E-02 0.93183895E+02</pdfrwt>
<totfact> 0.88534671E+04</totfact>
</mgrwt>
</event>
<event>
 4      1 +1.6944000e+03 7.06821000e+01 7.81860800e-03 1.35778900e-01
       -2 -1    0    0    0  501 -0.0000000000e+00 +0.0000000000e+00 +1.5957946173e+02 1.5957946173e+02 0.0000000000e+00 0.0000e+00 -1.0000e+00
        2 -1    0    0  501    0 +0.0000000000e+00 -0.0000000000e+00 -7.8267579339e+00 7.8267579339e+00 0.0000000000e+00 0.0000e+00 1.0000e+00
      -13  1    1    2    0    0 -3.2457021946e+01 +7.3142239683e+00 +4.7649801695e+01 5.8115916472e+01 0.0000000000e+00 0.0000e+00 1.0000e+00
       13  1    1    2    0    0 +3.2457021946e+01 -7.3142239683e+00 +1.0410290210e+02 1.0929030319e+02 0.0000000000e+00 0.0000e+00 -1.0000e+00
<mgrwt>
<rscale>  0 0.70682100E+02</rscale>
<asrwt>0</asrwt>
<pdfrwt beam="2">  1        2 0.12041167E-02 0.70682100E+02</pdfrwt>
<pdfrwt beam="1">  1       -2 0.24550684E-01 0.70682100E+02</pdfrwt>
<totfact> 0.12990569E+05</totfact>
</mgrwt>
</event>
<event>
 5      1 +1.6944000e+03 9.14348300e+01 7.81860800e-03 1.29941400e-01
       -1 -1    0    0    0  501 -0.0000000000e+00 +0.0000000000e+00 +1.3118330330e+01 1.3118330330e+01 0.0000000000e+00 0.0000e+00 1.0000e+00
        1 -1    0    0  501    0 +0.0000000000e+00 -0.0000000000e+00 -1.5932529590e+02 1.5932529590e+02 0.0000000000e+00 0.0000e+00 -1.0000e+00
       23  2    1    2    0    0 +0.0000000000e+00 +0.0000000000e+00 -1.4620696557e+02 1.7244362623e+02 9.1434826223e+01 0.0000e+00 0.0000e+00
      -13  1    3    3    0    0 +3.0641256046e+01 -1.2171506107e+01 -1.3283406327e+02 1.3686460645e+02 0.0000000000e+00 0.0000e+00 -1.0000e+00
       13  1    3    3    0    0 -3.0641256046e+01 +1.2171506107e+01 -1.3372902303e+01 3.5579019787e+01 0.0000000000e+00 0.0000e+00 1.0000e+00
<mgrwt>
<rscale>  0 0.91434826E+02</rscale>
<asrwt>0</asrwt>
<pdfrwt beam="2">  1        1 0.24511583E-01 0.91434826E+02</pdfrwt>
<pdfrwt beam="1">  1       -1 0.20182047E-02 0.91434826E+02</pdfrwt>
<totfact> 0.11253016E+05</totfact>
</mgrwt>
</event>
<event>
 4      1 +1.6944000e+03 2.64595200e+01 7.81860800e-03 1.64088200e-01
       -1 -1    0    0    0  501 -0.0000000000e+00 +0.0000000000e+00 +7.8866158125e+00 7.8866158125e+00 0.0000000000e+00 0.0000e+00 1.0000e+00
        1 -1    0    0  501    0 +0.0000000000e+00 -0.0000000000e+00 -2.2192852154e+01 2.2192852154e+01 0.0000000000e+00 0.0000e+00 -1.0000e+00
      -11  1    1    2    0    0 -9.9877503973e+00 +3.0025849650e+00 -1.6406495729e+01 1.9440776131e+01 0.0000000000e+00 0.0000e+00 -1.0000e+00
       11  1    1    2    0    0 +9.9877503973e+00 -3.0025849650e+00 +2.1002593877e+00 1.0638691835e+01 0.0000000000e+00 0.0000e+00 1.0000e+00
<mgrwt>
<rscale>  0 0.26459516E+02</rscale>
<asrwt>0</asrwt>
<pdfrwt beam="2">  1        1 0.34142849E-02 0.26459516E+02</pdfrwt>
<pdfrwt beam="1">  1       -1 0.12133255E-02 0.26459516E+02</pdfrwt>
<totfact> 0.20964945E+06</totfact>
</mgrwt>
</event>
<event>
 4      1 +1.6944000e+03 8.03947000e+01 7.81860800e-03 1.32793500e-01
       -2 -1    0    0    0  501 -0.0000000000e+00 +0.0000000000e+00 +9.9242372409e+01 9.9242372409e+01 0.0000000000e+00 0.0000e+00 -1.0000e+00
        2 -1    0    0  501    0 +0.0000000000e+00 -0.0000000000e+00 -1.6281623421e+01 1.6281623421e+01 0.0000000000e+00 0.0000e+00 1.0000e+00
      -13  1    1    2    0    0 -3.9188165351e+00 -1.7606357802e+01 -1.0140033133e+01 2.0692057172e+01 0.0000000000e+00 0.0000e+00 1.0000e+00
       13  1    1    2    0    0 +3.9188165351e+00 +1.7606357802e+01 +9.3100782121e+01 9.4831938658e+01 0.0000000000e+00 0.0000e+00 -1.0000e+00
<mgrwt>
<rscale>  0 0.80394700E+02</rscale>
<asrwt>0</asrwt>
<pdfrwt beam="2">  1        2 0.25048652E-02 0.80394700E+02</pdfrwt>
<pdfrwt beam="1">  1       -2 0.15268057E-01 0.80394700E+02</pdfrwt>
<totfact> 0.10939483E+05</totfact>
</mgrwt>
</event>
<event>
 5      1 +1.6944000e+03 9.06397800e+01 7.81860800e-03 1.30131000e-01
       -1 -1    0    0    0  501 -0.0000000000e+00 +0.0000000000e+00 +1.1151538850e+01 1.1151538850e+01 0.0000000000e+00 0.0000e+00 1.0000e+00
        1 -1    0    0  501    0 +0.0000000000e+00 -0.0000000000e+00 -1.8418019052e+02 1.8418019052e+02 0.0000000000e+00 0.0000e+00 -1.0000e+00
       23  2    1    2    0    0 +0.0000000000e+00 +0.0000000000e+00 -1.7302865167e+02 1.9533172937e+02 9.0639782657e+01 0.0000e+00 0.0000e+00
      -13  1    3    3    0    0 -3.8896549349e+01 +1.7091651561e+01 -5.2520330724e+01 6.7553321485e+01 0.0000000000e+00 0.0000e+00 1.0000e+00
       13  1    3    3    0    0 +3.8896549349e+01 -1.7091651561e+01 -1.2050832095e+02 1.2777840789e+02 0.0000000000e+00 0.0000e+00 -1.0000e+00
<mgrwt>
<rscale>  0 0.90639783E+02</rscale>
<asrwt>0</asrwt>
<pdfrwt beam="2">  1        1 0.28335412E-01 0.90639783E+02</pdfrwt>
<pdfrwt beam="1">  1       -1 0.17156215E-02 0.90639783E+02</pdfrwt>
<totfact> 0.11840032E+05</totfact>
</mgrwt>
</event>
<event>
 5      1 +1.6944000e+03 8.41265100e+01 7.81860800e-03 1.31773300e-01
        1 -1    0    0  501    0 +0.0000000000e+00 +0.0000000000e+00 +2.8067661839e+02 2.8067661839e+02 0.0000000000e+00 0.0000e+00 -1.0000e+00
       -1 -1    0    0    0  501 -0.0000000000e+00 -0.0000000000e+00 -6.3037578682e+00 6.3037578682e+00 0.0000000000e+00 0.0000e+00 1.0000e+00
       23  2    1    2    0    0 +0.0000000000e+00 +0.0000000000e+00 +2.7437286052e+02 2.8698037625e+02 8.4126510485e+01 0.0000e+00 0.0000e+00
      -11  1    3    3    0    0 -3.3565658326e+01 +1.7509984417e+01 +1.9972250593e+02 2.0327895205e+02 0.0000000000e+00 0.0000e+00 -1.0000e+00
       11  1    3    3    0    0 +3.3565658326e+01 -1.7509984417e+01 +7.4650354588e+01 8.3701424200e+01 0.0000000000e+00 0.0000e+00 1.0000e+00
<mgrwt>
<rscale>  0 0.84126510E+02</rscale>
<asrwt>0</asrwt>
<pdfrwt beam="1">  1        1 0.43181008E-01 0.84126510E+02</pdfrwt>
<pdfrwt beam="2">  1       -1 0.96980912E-03 0.84126510E+02</pdfrwt>
<totfact> 0.15661942E+05</totfact>
</mgrwt>
</event>
<event>
 5      1 +1.6944000e+03 9.03555100e+01 7.81860800e-03 1.30199300e-01
       -1 -1    0    0    0  501 -0.0000000000e+00 +0.0000000000e+00 +3.2542954705e+01 3.2542954705e+01 0.0000000000e+00 0.0000e+00 1.0000e+00
        1 -1    0    0  501    0 +0.0000000000e+00 -0.0000000000e+00 -6.2718019880e+01 6.2718019880e+01 0.0000000000e+00 0.0000e+00 -1.0000e+00
       23  2    1    2    0    0 +0.0000000000e+00 +0.0000000000e+00 -3.0175065174e+01 9.5260974585e+01 9.0355512951e+01 0.0000e+00 0.0000e+00
      -13  1    3    3    0    0 -1.5633014083e+01 +2.3998870033e+01 -5.1922776836e+01 5.9298496157e+01 0.0000000000e+00 0.0000e+00 -1.0000e+00
       13  1    3    3    0    0 +1.5633014083e+01 -2.3998870033e+01 +2.1747711662e+01 3.5962478428e+01 0.0000000000e+00 0.0000e+00 1.0000e+00
<mgrwt>
<rscale>  0 0.90355513E+02</rscale>
<asrwt>0</asrwt>
<pdfrwt beam="2">  1        1 0.96489261E-02 0.90355513E+02</pdfrwt>
<pdfrwt beam="1">  1       -1 0.50066085E-02 0.90355513E+02</pdfrwt>
<totfact> 0.99479554E+04</totfact>
</mgrwt>
</event>
<event>
 5      1 +1.6944000e+03 9.03637300e+01 7.81860800e-03 1.30197300e-01
        2 -1    0    0  501    0 +0.0000000000e+00 +0.0000000000e+00 +2.6396558901e+01 2.6396558901e+01 0.0000000000e+00 0.0000e+00 1.0000e+00
       -2 -1    0    0    0  501 -0.0000000000e+00 -0.0000000000e+00 -7.7335869390e+01 7.7335869390e+01 0.0000000000e+00 0.0000e+00 -1.0000e+00
       23  2    1    2    0    0 +0.0000000000e+00 +0.0000000000e+00 -5.0939310488e+01 1.0373242829e+02 9.0363727934e+01 0.0000e+00 0.0000e+00
      -11  1    3    3    0    0 -1.4735200333e+00 +3.2856444788e+01 +1.0092202731e+01 3.4403049012e+01 0.0000000000e+00 0.0000e+00 1.0000e+00
       11  1    3    3    0    0 +1.4735200333e+00 -3.2856444788e+01 -6.1031513219e+01 6.9329379279e+01 0.0000000000e+00 0.0000e+00 -1.0000e+00
<mgrwt>
<rscale>  0 0.90363728E+02</rscale>
<asrwt>0</asrwt>
<pdfrwt beam="1">  1        2 0.40610091E-02 0.90363728E+02</pdfrwt>
<pdfrwt beam="2">  1       -2 0.11897826E-01 0.90363728E+02</pdfrwt>
<totfact> 0.87780397E+04</totfact>
</mgrwt>
</event>
<event>
 5      1 +1.6944000e+03 9.35909200e+01 7.81860800e-03 1.29438200e-01
       -3 -1    0    0    0  501 -0.0000000000e+00 +0.0000000000e+00 +5.6031823553e+01 5.6031823553e+01 0.0000000000e+00 0.0000e+00 1.0000e+00
        3 -1    0    0  501    0 +0.0000000000e+00 -0.0000000000e+00 -3.9081634783e+01 3.9081634783e+01 0.0000000000e+00 0.0000e+00 -1.0000e+00
       23  2    1    2    0    0 +0.0000000000e+00 +0.0000000000e+00 +1.6950188770e+01 9.5113458335e+01 9.3590924011e+01 0.0000e+00 0.0000e+00
      -11  1    3    3    0    0 +1.7673965822e+01 -3.4626287956e+01 +3.4946219671e+01 5.2274153793e+01 0.0000000000e+00 0.0000e+00 1.0000e+00
       11  1    3    3    0    0 -1.7673965822e+01 +3.4626287956e+01 -1.7996030901e+01 4.2839304542e+01 0.0000000000e+00 0.0000e+00 -1.0000e+00
<mgrwt>
<rscale>  0 0.93590924E+02</rscale>
<asrwt>0</asrwt>
<pdfrwt beam="2">  1        3 0.60125592E-02 0.93590924E+02</pdfrwt>
<pdfrwt beam="1">  1       -3 0.86202805E-02 0.93590924E+02</pdfrwt>
<totfact> 0.32624984E+04</totfact>
</mgrwt>
</event>
<event>
 4      1 +1.6944000e+03 2.11382100e+01 7.81860800e-03 1.72359700e-01
       -1 -1    0    0    0  501 -0.0000000000e+00 +0.0000000000e+00 +1.7859776489e+01 1.7859776489e+01 0.0000000000e+00 0.0000e+00 1.0000e+00
        1 -1    0    0  501    0 +0.0000000000e+00 -0.0000000000e+00 -6.2546121256e+00 6.2546121256e+00 0.0000000000e+00 0.0000e+00 -1.0000e+00
      -13  1    1    2    0    0 -9.3504277959e+00 -4.7090119019e+00 +4.1491432203e+00 1.1261468933e+01 0.0000000000e+00 0.0000e+00 1.0000e+00
       13  1    1    2    0    0 +9.3504277959e+00 +4.7090119019e+00 +7.4560211427e+00 1.2852919682e+01 0.0000000000e+00 0.0000e+00 -1.0000e+00
<mgrwt>
<rscale>  0 0.21138209E+02</rscale>
<asrwt>0</asrwt>
<pdfrwt beam="2">  1        1 0.96224803E-03 0.21138209E+02</pdfrwt>
<pdfrwt beam="1">  1       -1 0.27476579E-02 0.21138209E+02</pdfrwt>
<totfact> 0.33308887E+06</totfact>
</mgrwt>
</event>
<event>
 5      1 +1.6944000e+03 9.13824400e+01 7.81860800e-03 1.29953800e-01
       -4 -1    0    0    0  501 -0.0000000000e+00 +0.0000000000e+00 +1.0982326502e+01 1.0982326502e+01 0.0000000000e+00 0.0000e+00 1.0000e+00
        4 -1    0    0  501    0 +0.0000000000e+00 -0.0000000000e+00 -1.9009521295e+02 1.9009521295e+02 0.0000000000e+00 0.0000e+00 -1.0000e+00
       23  2    1    2    0    0 +0.0000000000e+00 +0.0000000000e+00 -1.7911288644e+02 2.0107753945e+02 9.1382442408e+01 0.0000e+00 0.0000e+00
      -13  1    3    3    0    0 -2.9545775758e+01 -1.2052906907e+01 -1.6151518046e+02 1.6463711292e+02 0.0000000000e+00 0.0000e+00 -1.0000e+00
       13  1    3    3    0    0 +2.9545775758e+01 +1.2052906907e+01 -1.7597705985e+01 3.6440426534e+01 0.0000000000e+00 0.0000e+00 1.0000e+00
<mgrwt>
<rscale>  0 0.91382442E+02</rscale>
<asrwt>0</asrwt>
<pdfrwt beam="2">  1        4 0.29245417E-01 0.91382442E+02</pdfrwt>
<pdfrwt beam="1">  1       -4 0.16895887E-02 0.91382442E+02</pdfrwt>
<totfact> 0.21212720E+04</totfact>
</mgrwt>
</event>
<event>
 5      1 +1.6944000e+03 9.10499900e+01 7.81860800e-03 1.30032900e-01
       -1 -1    0    0    0  501 -0.0000000000e+00 +0.0000000000e+00 +2.9290088866e+01 2.9290088866e+01 0.0000000000e+00 0.0000e+00 1.0000e+00
        1 -1    0    0  501    0 +0.0000000000e+00 -0.0000000000e+00 -7.0758589212e+01 7.0758589212e+01 0.0000000000e+00 0.0000e+00 -1.0000e+00
       23  2    1    2    0    0 +0.0000000000e+00 +0.0000000000e+00 -4.1468500346e+01 1.0004867808e+02 9.1049994311e+01 0.0000e+00 0.0000e+00
      -11  1    3    3    0    0 +3.7662016834e+01 +1.4600666356e+01 -4.3807594183e+01 5.9587853444e+01 0.0000000000e+00 0.0000e+00 -1.0000e+00
       11  1    3    3    0    0 -3.7662016834e+01 -1.4600666356e+01 +2.3390938362e+00 4.0460824633e+01 0.0000000000e+00 0.0000e+00 1.0000e+00
<mgrwt>
<rscale>  0 0.91049994E+02</rscale>
<asrwt>0</asrwt>
<pdfrwt beam="2">  1        1 0.10885937E-01 0.91049994E+02</pdfrwt>
<pdfrwt beam="1">  1       -1 0.45061675E-02 0.91049994E+02</pdfrwt>
<totfact> 0.99211776E+04</totfact>
</mgrwt>
</event>
<event>
 4      1 +1.6944000e+03 3.14730200e+01 7.81860800e-03 1.58235500e-01
       -1 -1    0    0    0  501 -0.0000000000e+00 +0.0000000000e+00 +1.6982219525e+00 1.6982219525e+00 0.0000000000e+00 0.0000e+00 1.0000e+00
        1 -1    0    0  501    0 +0.0000000000e+00 -0.0000000000e+00 -1.4582173917e+02 1.4582173917e+02 0.0000000000e+00 0.0000e+00 -1.0000e+00
      -13  1    1    2    0    0 -1.7072495316e+00 +1.5117373741e+01 -5.3203183346e+01 5.5335598017e+01 0.0000000000e+00 0.0000e+00 -1.0000e+00
       13  1    1    2    0    0 +1.7072495316e+00 -1.5117373741e+01 -9.0920333869e+01 9.2184363103e+01 0.0000000000e+00 0.0000e+00 1.0000e+00
<mgrwt>
<rscale>  0 0.31473016E+02</rscale>
<asrwt>0</asrwt>
<pdfrwt beam="2">  1        1 0.22434101E-01 0.31473016E+02</pdfrwt>
<pdfrwt beam="1">  1       -1 0.26126507E-03 0.31473016E+02</pdfrwt>
<totfact> 0.16501075E+06</totfact>
</mgrwt>
</event>
<event>
 5      1 +1.6944000e+03 9.22335900e+01 7.81860800e-03 1.29753100e-01
       -1 -1    0    0    0  501 -0.0000000000e+00 +0.0000000000e+00 +1.2153603063e+01 1.2153603063e+01 0.0000000000e+00 0.0000e+00 1.0000e+00
        1 -1    0    0  501    0 +0.0000000000e+00 -0.0000000000e+00 -1.7498998560e+02 1.7498998560e+02 0.0000000000e+00 0.0000e+00 -1.0000e+00
       23  2    1    2    0    0 +0.0000000000e+00 +0.0000000000e+00 -1.6283638254e+02 1.8714358867e+02 9.2233590952e+01 0.0000e+00 0.0000e+00
      -13  1    3    3    0    0 +3.9427948881e+01 +1.5515218509e+01 -1.1835933624e+02 1.2571482662e+02 0.0000000000e+00 0.0000e+00 1.0000e+00
       13  1    3    3    0    0 -3.9427948881e+01 -1.5515218509e+01 -4.4477046304e+01 6.1428762044e+01 0.0000000000e+00 0.0000e+00 -1.0000e+00
<mgrwt>
<rscale>  0 0.92233591E+02</rscale>
<asrwt>0</asrwt>
<pdfrwt beam="2">  1        1 0.26921535E-01 0.92233591E+02</pdfrwt>
<pdfrwt beam="1">  1       -1 0.18697852E-02 0.92233591E+02</pdfrwt>
<totfact> 0.11187831E+05</totfact>
</mgrwt>
</event>
<event>
 4      1 +1.6944000e+03 3.24092800e+01 7.81860800e-03 1.57288900e-01
        2 -1    0    0  501    0 +0.0000000000e+00 +0.0000000000e+00 +1.4869037106e+01 1.4869037106e+01 0.0000000000e+00 0.0000e+00 1.0000e+00
       -2 -1    0    0    0  501 -0.0000000000e+00 -0.0000000000e+00 -1.7660218066e+01 1.7660218066e+01 0.0000000000e+00 0.0000e+00 -1.0000e+00
      -11  1    1    2    0    0 +1.0441790495e+01 -1.1366305065e+01 +3.5589315544e+00 1.5839503571e+01 0.0000000000e+00 0.0000e+00 1.0000e+00
       11  1    1    2    0    0 -1.0441790495e+01 +1.1366305065e+01 -6.3501125139e+00 1.6689751601e+01 0.0000000000e+00 0.0000e+00 -1.0000e+00
<mgrwt>
<rscale>  0 0.32409285E+02</rscale>
<asrwt>0</asrwt>
<pdfrwt beam="1">  1        2 0.22875442E-02 0.32409285E+02</pdfrwt>
<pdfrwt beam="2">  1       -2 0.27169566E-02 0.32409285E+02</pdfrwt>
<totfact> 0.12928805E+06</totfact>
</mgrwt>
</event>
<event>
 5      1 +1.6944000e+03 9.26595200e+01 7.81860800e-03 1.29653600e-01
        1 -1    0    0  501    0 +0.0000000000e+00 +0.0000000000e+00 +2.8397537353e+01 2.8397537353e+01 0.0000000000e+00 0.0000e+00 -1.0000e+00
       -1 -1    0    0    0  501 -0.0000000000e+00 -0.0000000000e+00 -7.5585654526e+01 7.5585654526e+01 0.0000000000e+00 0.0000e+00 1.0000e+00
       23  2    1    2    0    0 +0.0000000000e+00 +0.0000000000e+00 -4.7188117173e+01 1.0398319188e+02 9.2659515384e+01 0.0000e+00 0.0000e+00
      -13  1    3    3    0    0 -3.9428421971e+01 -1.0756052123e+01 +8.9355895154e-01 4.0878986827e+01 0.0000000000e+00 0.0000e+00 1.0000e+00
       13  1    3    3    0    0 +3.9428421971e+01 +1.0756052123e+01 -4.8081676124e+01 6.3104205052e+01 0.0000000000e+00 0.0000e+00 -1.0000e+00
<mgrwt>
<rscale>  0 0.92659515E+02</rscale>
<asrwt>0</asrwt>
<pdfrwt beam="1">  1        1 0.43688519E-02 0.92659515E+02</pdfrwt>
<pdfrwt beam="2">  1       -1 0.11628562E-01 0.92659515E+02</pdfrwt>
<totfact> 0.82003465E+04</totfact>
</mgrwt>
</event>
<event>
 5      1 +1.6944000e+03 8.33603900e+01 7.81860800e-03 1.31977700e-01
        4 -1    0    0  501    0 +0.0000000000e+00 +0.0000000000e+00 +1.3674582370e+01 1.3674582370e+01 0.0000000000e+00 0.0000e+00 -1.0000e+00
       -4 -1    0    0    0  501 -0.0000000000e+00 -0.0000000000e+00 -1.2704143399e+02 1.2704143399e+02 0.0000000000e+00 0.0000e+00 1.0000e+00
       23  2    1    2    0    0 +0.0000000000e+00 +0.0000000000e+00 -1.1336685162e+02 1.4071601636e+02 8.3360387559e+01 0.0000e+00 0.0000e+00
      -11  1    3    3    0    0 +2.0221343410e+01 -1.0166307905e+01 -1.1576453793e+02 1.1795628338e+02 0.0000000000e+00 0.0000e+00 1.0000e+00
       11  1    3    3    0    0 -2.0221343410e+01 +1.0166307905e+01 +2.3976863132e+00 2.2759732982e+01 0.0000000000e+00 0.0000e+00 -1.0000e+00
<mgrwt>
<rscale>  0 0.83360388E+02</rscale>
<asrwt>0</asrwt>
<pdfrwt beam="1">  1        4 0.21037820E-02 0.83360388E+02</pdfrwt>
<pdfrwt beam="2">  1       -4 0.19544835E-01 0.83360388E+02</pdfrwt>
<totfact> 0.30685661E+04</totfact>
</mgrwt>
</event>
<event>
 5      1 +1.6944000e+03 9.09983900e+01 7.81860800e-03 1.30045200e-01
        3 -1    0    0  501    0 +0.0000000000e+00 +0.0000000000e+00 +9.6376735653e+01 9.6376735653e+01 0.0000000000e+00 0.0000e+00 -1.0000e+00
       -3 -1    0    0    0  501 -0.0000000000e+00 -0.0000000000e+00 -2.1480047322e+01 2.1480047322e+01 0.0000000000e+00 0.0000e+00 1.0000e+00
       23  2    1    2    0    0 +0.0000000000e+00 +0.0000000000e+00 +7.4896688330e+01 1.1785678298e+02 9.0998392131e+01 0.0000e+00 0.0000e+00
      -11  1    3    3    0    0 +3.4494053505e+01 +6.8917767949e+00 +7.4825115969e+01 8.2680918562e+01 0.0000000000e+00 0.0000e+00 -1.0000e+00
       11  1    3    3    0    0 -3.4494053505e+01 -6.8917767949e+00 +7.1572361713e-02 3.5175864413e+01 0.0000000000e+00 0.0000e+00 1.0000e+00
<mgrwt>
<rscale>  0 0.90998392E+02</rscale>
<asrwt>0</asrwt>
<pdfrwt beam="1">  1        3 0.14827190E-01 0.90998392E+02</pdfrwt>
<pdfrwt beam="2">  1       -3 0.33046227E-02 0.90998392E+02</pdfrwt>
<totfact> 0.33571849E+04</totfact>
</mgrwt>
</event>
<event>
 5      1 +1.6944000e+03 9.03551000e+01 7.81860800e-03 1.30199400e-01
        2 -1    0    0  501    0 +0.0000000000e+00 +0.0000000000e+00 +2.1069531226e+02 2.1069531226e+02 0.0000000000e+00 0.0000e+00 -1.0000e+00
       -2 -1    0    0    0  501 -0.0000000000e+00 -0.0000000000e+00 -9.6870270691e+00 9.6870270691e+00 0.0000000000e+00 0.0000e+00 1.0000e+00
       23  2    1    2    0    0 +0.0000000000e+00 +0.0000000000e+00 +2.0100828519e+02 2.2038233933e+02 9.0355103745e+01 0.0000e+00 0.0000e+00
      -13  1    3    3    0    0 -3.3534116640e+00 -3.2688178131e+01 +2.4883212818e+01 4.1218159099e+01 0.0000000000e+00 0.0000e+00 1.0000e+00
       13  1    3    3    0    0 +3.3534116640e+00 +3.2688178131e+01 +1.7612507237e+02 1.7916418023e+02 0.0000000000e+00 0.0000e+00 -1.0000e+00
<mgrwt>
<rscale>  0 0.90355104E+02</rscale>
<asrwt>0</asrwt>
<pdfrwt beam="1">  1        2 0.32414660E-01 0.90355104E+02</pdfrwt>
<pdfrwt beam="2">  1       -2 0.14903120E-02 0.90355104E+02</pdfrwt>
<totfact> 0.16151272E+05</totfact>
</mgrwt>
</event>
<event>
 5      1 +1.6944000e+03 8.94823400e+01 7.81860800e-03 1.30411000e-01
        2 -1    0    0  501    0 +0.0000000000e+00 +0.0000000000e+00 +2.1690320536e+02 2.1690320536e+02 0.0000000000e+00 0.0000e+00 1.0000e+00
       -2 -1    0    0    0  501 -0.0000000000e+00 -0.0000000000e+00 -9.2288741889e+00 9.2288741889e+00 0.0000000000e+00 0.0000e+00 -1.0000e+00
       23  2    1    2    0    0 +0.0000000000e+00 +0.0000000000e+00 +2.0767433117e+02 2.2613207955e+02 8.9482342245e+01 0.0000e+00 0.0000e+00
      -13  1    3    3    0    0 -5.6325571813e+00 -3.8916321670e+01 +1.5777590240e+02 1.6260209461e+02 0.0000000000e+00 0.0000e+00 1.0000e+00
       13  1    3    3    0    0 +5.6325571813e+00 +3.8916321670e+01 +4.9898428770e+01 6.3529984940e+01 0.0000000000e+00 0.0000e+00 -1.0000e+00
<mgrwt>
<rscale>  0 0.89482342E+02</rscale>
<asrwt>0</asrwt>
<pdfrwt beam="1">  1        2 0.33369720E-01 0.89482342E+02</pdfrwt>
<pdfrwt beam="2">  1       -2 0.14198270E-02 0.89482342E+02</pdfrwt>
<totfact> 0.16753350E+05</totfact>
</mgrwt>
</event>
<event>
 5      1 +1.6944000e+03 9.09469100e+01 7.81860800e-03 1.30057500e-01
       -2 -1    0    0    0  501 -0.0000000000e+00 +0.0000000000e+00 +1.8015159254e+01 1.8015159254e+01 0.0000000000e+00 0.0000e+00 1.0000e+00
        2 -1    0    0  501    0 +0.0000000000e+00 -0.0000000000e+00 -1.1478306094e+02 1.1478306094e+02 0.0000000000e+00 0.0000e+00 -1.0000e+00
       23  2    1    2    0    0 +0.0000000000e+00 +0.0000000000e+00 -9.6767901686e+01 1.3279822019e+02 9.0946910283e+01 0.0000e+00 0.0000e+00
      -13  1    3    3    0    0 +1.8711175037e+01 -4.0114572528e+01 -6.3596971756e+01 7.7484590835e+01 0.0000000000e+00 0.0000e+00 -1.0000e+00
       13  1    3    3    0    0 -1.8711175037e+01 +4.0114572528e+01 -3.3170929930e+01 5.5313629359e+01 0.0000000000e+00 0.0000e+00 1.0000e+00
<mgrwt>
<rscale>  0 0.90946910E+02</rscale>
<asrwt>0</asrwt>
<pdfrwt beam="2">  1        2 0.17658933E-01 0.90946910E+02</pdfrwt>
<pdfrwt beam="1">  1       -2 0.27715630E-02 0.90946910E+02</pdfrwt>
<totfact> 0.12892849E+05</totfact>
</mgrwt>
</event>
<event>
 5      1 +1.6944000e+03 9.71284800e+01 7.81860800e-03 1.28645300e-01
       -1 -1    0    0    0  501 -0.0000000000e+00 +0.0000000000e+00 +1.1962727302e+01 1.1962727302e+01 0.0000000000e+00 0.0000e+00 1.0000e+00
        1 -1    0    0  501    0 +0.0000000000e+00 -0.0000000000e+00 -1.9715280804e+02 1.9715280804e+02 0.0000000000e+00 0.0000e+00 -1.0000e+00
       23  2    1    2    0    0 +0.0000000000e+00 +0.0000000000e+00 -1.8519008074e+02 2.0911553534e+02 9.7128477377e+01 0.0000e+00 0.0000e+00
      -11  1    3    3    0    0 -8.6953611378e+00 +2.9362197235e+01 -1.1443528356e+01 3.2691012113e+01 0.0000000000e+00 0.0000e+00 1.0000e+00
       11  1    3    3    0    0 +8.6953611378e+00 -2.9362197235e+01 -1.7374655238e+02 1.7642452323e+02 0.0000000000e+00 0.0000e+00 -1.0000e+00
<mgrwt>
<rscale>  0 0.97128477E+02</rscale>
<asrwt>0</asrwt>
<pdfrwt beam="2">  1        1 0.30331199E-01 0.97128477E+02</pdfrwt>
<pdfrwt beam="1">  1       -1 0.18404197E-02 0.97128477E+02</pdfrwt>
<totfact> 0.99584896E+04</totfact>
</mgrwt>
</event>
<event>
 5      1 +1.6944000e+03 1.04546500e+02 7.81860800e-03 1.27101600e-01
       -3 -1    0    0    0  501 -0.0000000000e+00 +0.0000000000e+00 +6.0284002611e+01 6.0284002611e+01 0.0000000000e+00 0.0000e+00 1.0000e+00
        3 -1    0    0  501    0 +0.0000000000e+00 -0.0000000000e+00 -4.5327021799e+01 4.5327021799e+01 0.0000000000e+00 0.0000e+00 -1.0000e+00
       23  2    1    2    0    0 +0.0000000000e+00 +0.0000000000e+00 +1.4956980813e+01 1.0561102441e+02 1.0454653128e+02 0.0000e+00 0.0000e+00
      -11  1    3    3    0    0 +3.4129212024e+01 +3.1255266953e+01 +3.2032344877e+01 5.6282909875e+01 0.0000000000e+00 0.0000e+00 1.0000e+00
       11  1    3    3    0    0 -3.4129212024e+01 -3.1255266953e+01 -1.7075364064e+01 4.9328114535e+01 0.0000000000e+00 0.0000e+00 -1.0000e+00
<mgrwt>
<rscale>  0 0.10454653E+03</rscale>
<asrwt>0</asrwt>
<pdfrwt beam="2">  1        3 0.69733880E-02 0.10454653E+03</pdfrwt>
<pdfrwt beam="1">  1       -3 0.92744619E-02 0.10454653E+03</pdfrwt>
<totfact> 0.23533845E+04</totfact>
</mgrwt>
</event>
<event>
 5      1 +1.6944000e+03 9.18955400e+01 7.81860800e-03 1.29832500e-01
       -2 -1    0    0    0  501 -0.0000000000e+00 +0.0000000000e+00 +3.4250404905e+01 3.4250404905e+01 0.0000000000e+00 0.0000e+00 1.0000e+00
        2 -1    0    0  501    0 +0.0000000000e+00 -0.0000000000e+00 -6.1640071061e+01 6.1640071061e+01 0.0000000000e+00 0.0000e+00 -1.0000e+00
       23  2    1    2    0    0 +0.0000000000e+00 +0.0000000000e+00 -2.7389666156e+01 9.5890475966e+01 9.1895536175e+01 0.0000e+00 0.0000e+00
      -11  1    3    3    0    0 +4.1485711137e+01 +1.7265197461e+01 -2.3705979244e+01 5.0804770680e+01 0.0000000000e+00 0.0000e+00 1.0000e+00
       11  1    3    3    0    0 -4.1485711137e+01 -1.7265197461e+01 -3.6836869119e+00 4.5085705286e+01 0.0000000000e+00 0.0000e+00 -1.0000e+00
<mgrwt>
<rscale>  0 0.91895536E+02</rscale>
<asrwt>0</asrwt>
<pdfrwt beam="2">  1        2 0.94830878E-02 0.91895536E+02</pdfrwt>
<pdfrwt beam="1">  1       -2 0.52692931E-02 0.91895536E+02</pdfrwt>
<totfact> 0.10450097E+05</totfact>
</mgrwt>
</event>
<event>
 5      1 +1.6944000e+03 9.38110300e+01 7.81860800e-03 1.29387700e-01
       -1 -1    0    0    0  501 -0.0000000000e+00 +0.0000000000e+00 +1.6638833620e+02 1.6638833620e+02 0.0000000000e+00 0.0000e+00 1.0000e+00
        1 -1    0    0  501    0 +0.0000000000e+00 -0.0000000000e+00 -1.3222845190e+01 1.3222845190e+01 0.0000000000e+00 0.0000e+00 -1.0000e+00
       23  2    1    2    0    0 +0.0000000000e+00 +0.0000000000e+00 +1.5316549101e+02 1.7961118139e+02 9.3811027307e+01 0.0000e+00 0.0000e+00
      -11  1    3    3    0    0 +1.9360561503e+01 -3.3302521956e+01 +1.2782262821e+02 1.3350098723e+02 0.0000000000e+00 0.0000e+00 1.0000e+00
       11  1    3    3    0    0 -1.9360561503e+01 +3.3302521956e+01 +2.5342862806e+01 4.6110194161e+01 0.0000000000e+00 0.0000e+00 -1.0000e+00
<mgrwt>
<rscale>  0 0.93811027E+02</rscale>
<asrwt>0</asrwt>
<pdfrwt beam="2">  1        1 0.20342840E-02 0.93811027E+02</pdfrwt>
<pdfrwt beam="1">  1       -1 0.25598204E-01 0.93811027E+02</pdfrwt>
<totfact> 0.67720746E+04</totfact>
</mgrwt>
</event>
<event>
 5      1 +1.6944000e+03 9.12998600e+01 7.81860800e-03 1.29973400e-01
        1 -1    0    0  501    0 +0.0000000000e+00 +0.0000000000e+00 +1.6847120693e+02 1.6847120693e+02 0.0000000000e+00 0.0000e+00 -1.0000e+00
       -1 -1    0    0    0  501 -0.0000000000e+00 -0.0000000000e+00 -1.2369568507e+01 1.2369568507e+01 0.0000000000e+00 0.0000e+00 1.0000e+00
       23  2    1    2    0    0 +0.0000000000e+00 +0.0000000000e+00 +1.5610163842e+02 1.8084077544e+02 9.1299860582e+01 0.0000e+00 0.0000e+00
      -11  1    3    3    0    0 +6.7078418489e+00 +4.0992516874e+01 +4.0545595979e+01 5.8045903690e+01 0.0000000000e+00 0.0000e+00 1.0000e+00
       11  1    3    3    0    0 -6.7078418489e+00 -4.0992516874e+01 +1.1555604244e+02 1.2279487175e+02 0.0000000000e+00 0.0000e+00 -1.0000e+00
<mgrwt>
<rscale>  0 0.91299861E+02</rscale>
<asrwt>0</asrwt>
<pdfrwt beam="1">  1        1 0.25918646E-01 0.91299861E+02</pdfrwt>
<pdfrwt beam="2">  1       -1 0.19030107E-02 0.91299861E+02</pdfrwt>
<totfact> 0.11416527E+05</totfact>
</mgrwt>
</event>
<event>
 5      1 +1.6944000e+03 9.14959700e+01 7.81860800e-03 1.29926900e-01
        3 -1    0    0  501    0 +0.0000000000e+00 +0.0000000000e+00 +6.5700665720e+01 6.5700665720e+01 0.0000000000e+00 0.0000e+00 -1.0000e+00
       -3 -1    0    0    0  501 -0.0000000000e+00 -0.0000000000e+00 -3.1854748258e+01 3.1854748258e+01 0.0000000000e+00 0.0000e+00 1.0000e+00
       23  2    1    2    0    0 +0.0000000000e+00 +0.0000000000e+00 +3.3845917462e+01 9.7555413979e+01 9.1495970773e+01 0.0000e+00 0.0000e+00
      -13  1    3    3    0    0 -7.1748072379e-01 -2.0143467965e+01 +6.0711046607e+01 6.3969565110e+01 0.0000000000e+00 0.0000e+00 -1.0000e+00
       13  1    3    3    0    0 +7.1748072379e-01 +2.0143467965e+01 -2.6865129145e+01 3.3585848869e+01 0.0000000000e+00 0.0000e+00 1.0000e+00
<mgrwt>
<rscale>  0 0.91495971E+02</rscale>
<asrwt>0</asrwt>
<pdfrwt beam="1">  1        3 0.10107795E-01 0.91495971E+02</pdfrwt>
<pdfrwt beam="2">  1       -3 0.49007305E-02 0.91495971E+02</pdfrwt>
<totfact> 0.34522701E+04</totfact>
</mgrwt>
</event>
<event>
 5      1 +1.6944000e+03 1.02304600e+02 7.81860800e-03 1.27552300e-01
        1 -1    0    0  501    0 +0.0000000000e+00 +0.0000000000e+00 +2.5520922170e+01 2.5520922170e+01 0.0000000000e+00 0.0000e+00 -1.0000e+00
       -1 -1    0    0    0  501 -0.0000000000e+00 -0.0000000000e+00 -1.0252600353e+02 1.0252600353e+02 0.0000000000e+00 0.0000e+00 1.0000e+00
       23  2    1    2    0    0 +0.0000000000e+00 +0.0000000000e+00 -7.7005081361e+01 1.2804692570e+02 1.0230460706e+02 0.0000e+00 0.0000e+00
      -11  1    3    3    0    0 +1.3328861373e+01 +2.9295874432e+01 -8.8263873930e+01 9.3949019396e+01 0.0000000000e+00 0.0000e+00 1.0000e+00
       11  1    3    3    0    0 -1.3328861373e+01 -2.9295874432e+01 +1.1258792569e+01 3.4097906305e+01 0.0000000000e+00 0.0000e+00 -1.0000e+00
<mgrwt>
<rscale>  0 0.10230461E+03</rscale>
<asrwt>0</asrwt>
<pdfrwt beam="1">  1        1 0.39262957E-02 0.10230461E+03</pdfrwt>
<pdfrwt beam="2">  1       -1 0.15773231E-01 0.10230461E+03</pdfrwt>
<totfact> 0.60157484E+04</totfact>
</mgrwt>
</event>
<event>
 5      1 +1.6944000e+03 9.15484900e+01 7.81860800e-03 1.29914500e-01
        2 -1    0    0  501    0 +0.0000000000e+00 +0.0000000000e+00 +2.6907421302e+01 2.6907421302e+01 0.0000000000e+00 0.0000e+00 1.0000e+00
       -2 -1    0    0    0  501 -0.0000000000e+00 -0.0000000000e+00 -7.7870017012e+01 7.7870017012e+01 0.0000000000e+00 0.0000e+00 -1.0000e+00
       23  2    1    2    0    0 +0.0000000000e+00 +0.0000000000e+00 -5.0962595710e+01 1.0477743831e+02 9.1548486707e+01 0.0000e+00 0.0000e+00
      -11  1    3    3    0    0 -4.0061189881e+01 -3.7338350893e+00 -5.0462948029e+01 6.4539519544e+01 0.0000000000e+00 0.0000e+00 -1.0000e+00
       11  1    3    3    0    0 +4.0061189881e+01 +3.7338350893e+00 -4.9964768110e-01 4.0237918771e+01 0.0000000000e+00 0.0000e+00 1.0000e+00
<mgrwt>
<rscale>  0 0.91548487E+02</rscale>
<asrwt>0</asrwt>
<pdfrwt beam="1">  1        2 0.41396033E-02 0.91548487E+02</pdfrwt>
<pdfrwt beam="2">  1       -2 0.11980003E-01 0.91548487E+02</pdfrwt>
<totfact> 0.84861104E+04</totfact>
</mgrwt>
</event>
<event>
 5      1 +1.6944000e+03 8.95507500e+01 7.81860800e-03 1.30394300e-01
       -1 -1    0    0    0  501 -0.0000000000e+00 +0.0000000000e+00 +1.5662552676e+02 1.5662552676e+02 0.0000000000e+00 0.0000e+00 1.0000e+00
        1 -1    0    0  501    0 +0.0000000000e+00 -0.0000000000e+00 -1.2800174353e+01 1.2800174353e+01 0.0000000000e+00 0.0000e+00 -1.0000e+00
       23  2    1    2    0    0 +0.0000000000e+00 +0.0000000000e+00 +1.4382535240e+02 1.6942570111e+02 8.9550746522e+01 0.0000e+00 0.0000e+00
      -11  1    3    3    0    0 +3.4336888099e+01 +2.8154775006e+01 +6.1024364122e+01 7.5469770481e+01 0.0000000000e+00 0.0000e+00 -1.0000e+00
       11  1    3    3    0    0 -3.4336888099e+01 -2.8154775006e+01 +8.2800988283e+01 9.3955930630e+01 0.0000000000e+00 0.0000e+00 1.0000e+00
<mgrwt>
<rscale>  0 0.89550747E+02</rscale>
<asrwt>0</asrwt>
<pdfrwt beam="2">  1        1 0.19692577E-02 0.89550747E+02</pdfrwt>
<pdfrwt beam="1">  1       -1 0.24096233E-01 0.89550747E+02</pdfrwt>
<totfact> 0.77562231E+04</totfact>
</mgrwt>
</event>
<event>
 5      1 +1.6944000e+03 9.14028800e+01 7.81860800e-03 1.29949000e-01
        1 -1    0    0  501    0 +0.0000000000e+00 +0.0000000000e+00 +2.2338889579e+01 2.2338889579e+01 0.0000000000e+00 0.0000e+00 -1.0000e+00
       -1 -1    0    0    0  501 -0.0000000000e+00 -0.0000000000e+00 -9.3497107887e+01 9.3497107887e+01 0.0000000000e+00 0.0000e+00 1.0000e+00
       23  2    1    2    0    0 +0.0000000000e+00 +0.0000000000e+00 -7.1158218308e+01 1.1583599747e+02 9.1402878926e+01 0.0000e+00 0.0000e+00
      -11  1    3    3    0    0 -1.3689615933e+01 +4.3367761972e+01 -2.9847661031e+01 5.4397161983e+01 0.0000000000e+00 0.0000e+00 1.0000e+00
       11  1    3    3    0    0 +1.3689615933e+01 -4.3367761972e+01 -4.1310557277e+01 6.1438835482e+01 0.0000000000e+00 0.0000e+00 -1.0000e+00
<mgrwt>
<rscale>  0 0.91402879E+02</rscale>
<asrwt>0</asrwt>
<pdfrwt beam="1">  1        1 0.34367522E-02 0.91402879E+02</pdfrwt>
<pdfrwt beam="2">  1       -1 0.14384171E-01 0.91402879E+02</pdfrwt>
<totfact> 0.81855282E+04</totfact>
</mgrwt>
</event>
<event>
 5      1 +1.6944000e+03 9.14946900e+01 7.81860800e-03 1.29927200e-01
       -1 -1    0    0    0  501 -0.0000000000e+00 +0.0000000000e+00 +1.6410706889e+01 1.6410706889e+01 0.0000000000e+00 0.0000e+00 1.0000e+00
        1 -1    0    0  501    0 +0.0000000000e+00 -0.0000000000e+00 -1.2752768205e+02 1.2752768205e+02 0.0000000000e+00 0.0000e+00 -1.0000e+00
       23  2    1    2    0    0 +0.0000000000e+00 +0.0000000000e+00 -1.1111697516e+02 1.4393838894e+02 9.1494686412e+01 0.0000e+00 0.0000e+00
      -13  1    3    3    0    0 +2.8295322124e+01 -5.4307408903e+00 -1.1146096601e+02 1.1512456361e+02 0.0000000000e+00 0.0000e+00 -1.0000e+00
       13  1    3    3    0    0 -2.8295322124e+01 +5.4307408903e+00 +3.4399085218e-01 2.8813825335e+01 0.0000000000e+00 0.0000e+00 1.0000e+00
<mgrwt>
<rscale>  0 0.91494686E+02</rscale>
<asrwt>0</asrwt>
<pdfrwt beam="2">  1        1 0.19619643E-01 0.91494686E+02</pdfrwt>
<pdfrwt beam="1">  1       -1 0.25247242E-02 0.91494686E+02</pdfrwt>
<totfact> 0.10787298E+05</totfact>
</mgrwt>
</event>
<event>
 5      1 +1.6944000e+03 9.17112700e+01 7.81860800e-03 1.29876000e-01
       -2 -1    0    0    0  501 -0.0000000000e+00 +0.0000000000e+00 +7.8024759669e+00 7.8024759669e+00 0.0000000000e+00 0.0000e+00 1.0000e+00
        2 -1    0    0  501    0 +0.0000000000e+00 -0.0000000000e+00 -2.6949643294e+02 2.6949643294e+02 0.0000000000e+00 0.0000e+00 -1.0000e+00
       23  2    1    2    0    0 +0.0000000000e+00 +0.0000000000e+00 -2.6169395698e+02 2.7729890891e+02 9.1711273924e+01 0.0000e+00 0.0000e+00
      -11  1    3    3    0    0 -4.1068278091e+00 -4.2016897559e+01 -7.6720708748e+01 8.7569131924e+01 0.0000000000e+00 0.0000e+00 1.0000e+00
       11  1    3    3    0    0 +4.1068278091e+00 +4.2016897559e+01 -1.8497324823e+02 1.8972977699e+02 0.0000000000e+00 0.0000e+00 -1.0000e+00
<mgrwt>
<rscale>  0 0.91711274E+02</rscale>
<asrwt>0</asrwt>
<pdfrwt beam="2">  1        2 0.41460979E-01 0.91711274E+02</pdfrwt>
<pdfrwt beam="1">  1       -2 0.12003812E-02 0.91711274E+02</pdfrwt>
<totfact> 0.16993702E+05</totfact>
</mgrwt>
</event>
<event>
 4      1 +1.6944000e+03 2.29970500e+01 7.81860800e-03 1.69155800e-01
        2 -1    0    0  501    0 +0.0000000000e+00 +0.0000000000e+00 +8.7236920141e+01 8.7236920141e+01 0.0000000000e+00 0.0000e+00 -1.0000e+00
       -2 -1    0    0    0  501 -0.0000000000e+00 -0.0000000000e+00 -1.5155979696e+00 1.5155979696e+00 0.0000000000e+00 0.0000e+00 1.0000e+00
      -11  1    1    2    0    0 -8.6627726113e+00 +6.0420472310e+00 +2.5316276076e+01 2.7431073592e+01 0.0000000000e+00 0.0000e+00 -1.0000e+00
       11  1    1    2    0    0 +8.6627726113e+00 -6.0420472310e+00 +6.0405046095e+01 6.1321444518e+01 0.0000000000e+00 0.0000e+00 1.0000e+00
<mgrwt>
<rscale>  0 0.22997052E+02</rscale>
<asrwt>0</asrwt>
<pdfrwt beam="1">  1        2 0.13421061E-01 0.22997052E+02</pdfrwt>
<pdfrwt beam="2">  1       -2 0.23316899E-03 0.22997052E+02</pdfrwt>
<totfact> 0.37458879E+06</totfact>
</mgrwt>
</event>
<event>
 5      1 +1.6944000e+03 9.11944000e+01 7.81860800e-03 1.29998500e-01
        1 -1    0    0  501    0 +0.0000000000e+00 +0.0000000000e+00 +5.3620969992e+01 5.3620969992e+01 0.0000000000e+00 0.0000e+00 -1.0000e+00
       -1 -1    0    0    0  501 -0.0000000000e+00 -0.0000000000e+00 -3.8774094842e+01 3.8774094842e+01 0.0000000000e+00 0.0000e+00 1.0000e+00
       23  2    1    2    0    0 +0.0000000000e+00 +0.0000000000e+00 +1.4846875151e+01 9.2395064834e+01 9.1194398424e+01 0.0000e+00 0.0000e+00
      -11  1    3    3    0    0 +3.1461570900e+01 +1.3988811946e+01 +3.7709938356e+01 5.1064241442e+01 0.0000000000e+00 0.0000e+00 -1.0000e+00
       11  1    3    3    0    0 -3.1461570900e+01 -1.3988811946e+01 -2.2863063206e+01 4.1330823393e+01 0.0000000000e+00 0.0000e+00 1.0000e+00
<mgrwt>
<rscale>  0 0.91194398E+02</rscale>
<asrwt>0</asrwt>
<pdfrwt beam="1">  1        1 0.82493800E-02 0.91194398E+02</pdfrwt>
<pdfrwt beam="2">  1       -1 0.59652454E-02 0.91194398E+02</pdfrwt>
<totfact> 0.94702170E+04</totfact>
</mgrwt>
</event>
<event>
 5      1 +1.6944000e+03 9.08734700e+01 7.81860800e-03 1.30075000e-01
       -3 -1    0    0    0  501 -0.0000000000e+00 +0.0000000000e+00 +2.4521828548e+01 2.4521828548e+01 0.0000000000e+00 0.0000e+00 1.0000e+00
        3 -1    0    0  501    0 +0.0000000000e+00 -0.0000000000e+00 -8.4190169904e+01 8.4190169904e+01 0.0000000000e+00 0.0000e+00 -1.0000e+00
       23  2    1    2    0    0 +0.0000000000e+00 +0.0000000000e+00 -5.9668341356e+01 1.0871199845e+02 9.0873470536e+01 0.0000e+00 0.0000e+00
      -11  1    3    3    0    0 -2.5794920332e+01 +3.6825581272e+01 -3.7678434184e+01 5.8661450319e+01 0.0000000000e+00 0.0000e+00 -1.0000e+00
       11  1    3    3    0    0 +2.5794920332e+01 -3.6825581272e+01 -2.1989907172e+01 5.0050548133e+01 0.0000000000e+00 0.0000e+00 1.0000e+00
<mgrwt>
<rscale>  0 0.90873471E+02</rscale>
<asrwt>0</asrwt>
<pdfrwt beam="2">  1        3 0.12952334E-01 0.90873471E+02</pdfrwt>
<pdfrwt beam="1">  1       -3 0.37725890E-02 0.90873471E+02</pdfrwt>
<totfact> 0.34346579E+04</totfact>
</mgrwt>
</event>
<event>
 5      1 +1.6944000e+03 9.27503000e+01 7.81860800e-03 1.29632500e-01
       -2 -1    0    0    0  501 -0.0000000000e+00 +0.0000000000e+00 +9.5477372538e+01 9.5477372538e+01 0.0000000000e+00 0.0000e+00 1.0000e+00
        2 -1    0    0  501    0 +0.0000000000e+00 -0.0000000000e+00 -2.2525277960e+01 2.2525277960e+01 0.0000000000e+00 0.0000e+00 -1.0000e+00
       23  2    1    2    0    0 +0.0000000000e+00 +0.0000000000e+00 +7.2952094578e+01 1.1800265050e+02 9.2750296070e+01 0.0000e+00 0.0000e+00
      -11  1    3    3    0    0 -1.0145132508e+01 +3.0666252524e+01 -5.8601047314e+00 3.2828091400e+01 0.0000000000e+00 0.0000e+00 -1.0000e+00
       11  1    3    3    0    0 +1.0145132508e+01 -3.0666252524e+01 +7.8812199310e+01 8.5174559098e+01 0.0000000000e+00 0.0000e+00 1.0000e+00
<mgrwt>
<rscale>  0 0.92750296E+02</rscale>
<asrwt>0</asrwt>
<pdfrwt beam="2">  1        2 0.34654274E-02 0.92750296E+02</pdfrwt>
<pdfrwt beam="1">  1       -2 0.14688826E-01 0.92750296E+02</pdfrwt>
<totfact> 0.77539170E+04</totfact>
</mgrwt>
</event>
<event>
 5      1 +1.6944000e+03 9.05269400e+01 7.81860800e-03 1.30158100e-01
        3 -1    0    0  501    0 +0.0000000000e+00 +0.0000000000e+00 +6.0723745781e+01 6.0723745781e+01 0.0000000000e+00 0.0000e+00 -1.0000e+00
       -3 -1    0    0    0  501 -0.0000000000e+00 -0.0000000000e+00 -3.3739383207e+01 3.3739383207e+01 0.0000000000e+00 0.0000e+00 1.0000e+00
       23  2    1    2    0    0 +0.0000000000e+00 +0.0000000000e+00 +2.6984362574e+01 9.4463128988e+01 9.0526940270e+01 0.0000e+00 0.0000e+00
      -11  1    3    3    0    0 -2.8083124974e+01 -3.3858828779e+01 +2.3655466425e+00 4.4053127079e+01 0.0000000000e+00 0.0000e+00 1.0000e+00
       11  1    3    3    0    0 +2.8083124974e+01 +3.3858828779e+01 +2.4618815932e+01 5.0410001909e+01 0.0000000000e+00 0.0000e+00 -1.0000e+00
<mgrwt>
<rscale>  0 0.90526940E+02</rscale>
<asrwt>0</asrwt>
<pdfrwt beam="1">  1        3 0.93421147E-02 0.90526940E+02</pdfrwt>
<pdfrwt beam="2">  1       -3 0.51906743E-02 0.90526940E+02</pdfrwt>
<totfact> 0.35776349E+04</totfact>
</mgrwt>
</event>
<event>
 5      1 +1.6944000e+03 9.16043700e+01 7.81860800e-03 1.29901200e-01
        1 -1    0    0  501    0 +0.0000000000e+00 +0.0000000000e+00 +2.7748277053e+01 2.7748277053e+01 0.0000000000e+00 0.0000e+00 -1.0000e+00
       -1 -1    0    0    0  501 -0.0000000000e+00 -0.0000000000e+00 -7.5602537680e+01 7.5602537680e+01 0.0000000000e+00 0.0000e+00 1.0000e+00
       23  2    1    2    0    0 +0.0000000000e+00 +0.0000000000e+00 -4.7854260627e+01 1.0335081473e+02 9.1604370234e+01 0.0000e+00 0.0000e+00
      -11  1    3    3    0    0 -2.6167032769e+01 +5.4035025970e+00 +1.8044377547e+01 3.2241448561e+01 0.0000000000e+00 0.0000e+00 -1.0000e+00
       11  1    3    3    0    0 +2.6167032769e+01 -5.4035025970e+00 -6.5898638174e+01 7.1109366172e+01 0.0000000000e+00 0.0000e+00 1.0000e+00
<mgrwt>
<rscale>  0 0.91604370E+02</rscale>
<asrwt>0</asrwt>
<pdfrwt beam="1">  1        1 0.42689657E-02 0.91604370E+02</pdfrwt>
<pdfrwt beam="2">  1       -1 0.11631160E-01 0.91604370E+02</pdfrwt>
<totfact> 0.84438908E+04</totfact>
</mgrwt>
</event>
<event>
 5      1 +1.6944000e+03 9.04535700e+01 7.81860800e-03 1.30175700e-01
        1 -1    0    0  501    0 +0.0000000000e+00 +0.0000000000e+00 +1.1649193822e+02 1.1649193822e+02 0.0000000000e+00 0.0000e+00 -1.0000e+00
       -1 -1    0    0    0  501 -0.0000000000e+00 -0.0000000000e+00 -1.7558830075e+01 1.7558830075e+01 0.0000000000e+00 0.0000e+00 1.0000e+00
       23  2    1    2    0    0 +0.0000000000e+00 +0.0000000000e+00 +9.8933108147e+01 1.3405076830e+02 9.0453571479e+01 0.0000e+00 0.0000e+00
      -11  1    3    3    0    0 +1.7040701720e+01 -1.9488942283e+01 -5.4920433273e+00 2.6464446458e+01 0.0000000000e+00 0.0000e+00 1.0000e+00
       11  1    3    3    0    0 -1.7040701720e+01 +1.9488942283e+01 +1.0442515147e+02 1.0758632184e+02 0.0000000000e+00 0.0000e+00 -1.0000e+00
<mgrwt>
<rscale>  0 0.90453571E+02</rscale>
<asrwt>0</asrwt>
<pdfrwt beam="1">  1        1 0.17921836E-01 0.90453571E+02</pdfrwt>
<pdfrwt beam="2">  1       -1 0.27013585E-02 0.90453571E+02</pdfrwt>
<totfact> 0.10952659E+05</totfact>
</mgrwt>
</event>
<event>
 4      1 +1.6944000e+03 4.17832700e+01 7.81860800e-03 1.49548400e-01
        2 -1    0    0  501    0 +0.0000000000e+00 +0.0000000000e+00 +1.7826969210e+02 1.7826969210e+02 0.0000000000e+00 0.0000e+00 -1.0000e+00
       -2 -1    0    0    0  501 -0.0000000000e+00 -0.0000000000e+00 -2.4483158505e+00 2.4483158505e+00 0.0000000000e+00 0.0000e+00 1.0000e+00
      -11  1    1    2    0    0 +4.3507543098e+00 -2.0391481345e+01 +8.2240086984e+01 8.4842050197e+01 0.0000000000e+00 0.0000e+00 -1.0000e+00
       11  1    1    2    0    0 -4.3507543098e+00 +2.0391481345e+01 +9.3581289266e+01 9.5875957754e+01 0.0000000000e+00 0.0000e+00 1.0000e+00
<mgrwt>
<rscale>  0 0.41783275E+02</rscale>
<asrwt>0</asrwt>
<pdfrwt beam="1">  1        2 0.27426096E-01 0.41783275E+02</pdfrwt>
<pdfrwt beam="2">  1       -2 0.37666412E-03 0.41783275E+02</pdfrwt>
<totfact> 0.11065052E+06</totfact>
</mgrwt>
</event>
<event>
 4      1 +1.6944000e+03 4.11716400e+01 7.81860800e-03 1.49976200e-01
       -4 -1    0    0    0  501 -0.0000000000e+00 +0.0000000000e+00 +6.7811152963e+01 6.7811152963e+01 0.0000000000e+00 0.0000e+00 1.0000e+00
        4 -1    0    0  501    0 +0.0000000000e+00 -0.0000000000e+00 -6.2493537635e+00 6.2493537635e+00 0.0000000000e+00 0.0000e+00 -1.0000e+00
      -11  1    1    2    0    0 +1.2830513528e+01 -1.6048885923e+01 +3.3047036932e+01 3.8913949513e+01 0.0000000000e+00 0.0000e+00 1.0000e+00
       11  1    1    2    0    0 -1.2830513528e+01 +1.6048885923e+01 +2.8514762268e+01 3.5146557213e+01 0.0000000000e+00 0.0000e+00 -1.0000e+00
<mgrwt>
<rscale>  0 0.41171635E+02</rscale>
<asrwt>0</asrwt>
<pdfrwt beam="2">  1        4 0.96143909E-03 0.41171635E+02</pdfrwt>
<pdfrwt beam="1">  1       -4 0.10432485E-01 0.41171635E+02</pdfrwt>
<totfact> 0.21537719E+05</totfact>
</mgrwt>
</event>
<event>
 5      1 +1.6944000e+03 9.00858800e+01 7.81860800e-03 1.30264400e-01
        3 -1    0    0  501    0 +0.0000000000e+00 +0.0000000000e+00 +8.6947552857e+00 8.6947552857e+00 0.0000000000e+00 0.0000e+00 -1.0000e+00
       -3 -1    0    0    0  501 -0.0000000000e+00 -0.0000000000e+00 -2.3334370840e+02 2.3334370840e+02 0.0000000000e+00 0.0000e+00 1.0000e+00
       23  2    1    2    0    0 +0.0000000000e+00 +0.0000000000e+00 -2.2464895311e+02 2.4203846368e+02 9.0085879958e+01 0.0000e+00 0.0000e+00
      -13  1    3    3    0    0 -3.7913370679e+01 +2.3643761692e+00 -1.7735568179e+02 1.8137820105e+02 0.0000000000e+00 0.0000e+00 1.0000e+00
       13  1    3    3    0    0 +3.7913370679e+01 -2.3643761692e+00 -4.7293271316e+01 6.0660262633e+01 0.0000000000e+00 0.0000e+00 -1.0000e+00
<mgrwt>
<rscale>  0 0.90085880E+02</rscale>
<asrwt>0</asrwt>
<pdfrwt beam="1">  1        3 0.13376546E-02 0.90085880E+02</pdfrwt>
<pdfrwt beam="2">  1       -3 0.35899034E-01 0.90085880E+02</pdfrwt>
<totfact> 0.27327198E+04</totfact>
</mgrwt>
</event>
<event>
 5      1 +1.6944000e+03 8.79982300e+01 7.81860800e-03 1.30777300e-01
        3 -1    0    0  501    0 +0.0000000000e+00 +0.0000000000e+00 +8.8583786592e+00 8.8583786592e+00 0.0000000000e+00 0.0000e+00 1.0000e+00
       -3 -1    0    0    0  501 -0.0000000000e+00 -0.0000000000e+00 -2.1854135156e+02 2.1854135156e+02 0.0000000000e+00 0.0000e+00 -1.0000e+00
       23  2    1    2    0    0 +0.0000000000e+00 +0.0000000000e+00 -2.0968297290e+02 2.2739973022e+02 8.7998228274e+01 0.0000e+00 0.0000e+00
      -13  1    3    3    0    0 +1.6407755903e+00 -3.7774325488e+01 -1.6298924083e+02 1.6731731661e+02 0.0000000000e+00 0.0000e+00 -1.0000e+00
       13  1    3    3    0    0 -1.6407755903e+00 +3.7774325488e+01 -4.6693732071e+01 6.0082413611e+01 0.0000000000e+00 0.0000e+00 1.0000e+00
<mgrwt>
<rscale>  0 0.87998228E+02</rscale>
<asrwt>0</asrwt>
<pdfrwt beam="1">  1        3 0.13628275E-02 0.87998228E+02</pdfrwt>
<pdfrwt beam="2">  1       -3 0.33621745E-01 0.87998228E+02</pdfrwt>
<totfact> 0.29850694E+04</totfact>
</mgrwt>
</event>
<event>
 5      1 +1.6944000e+03 9.00609500e+01 7.81860800e-03 1.30270400e-01
       -3 -1    0    0    0  501 -0.0000000000e+00 +0.0000000000e+00 +9.6230964390e+00 9.6230964390e+00 0.0000000000e+00 0.0000e+00 1.0000e+00
        3 -1    0    0  501    0 +0.0000000000e+00 -0.0000000000e+00 -2.1071636303e+02 2.1071636303e+02 0.0000000000e+00 0.0000e+00 -1.0000e+00
       23  2    1    2    0    0 +0.0000000000e+00 +0.0000000000e+00 -2.0109326659e+02 2.2033945947e+02 9.0060954530e+01 0.0000e+00 0.0000e+00
      -11  1    3    3    0    0 -2.0977602951e+01 -2.4975502425e+01 -2.4588619129e+01 4.0846489905e+01 0.0000000000e+00 0.0000e+00 1.0000e+00
       11  1    3    3    0    0 +2.0977602951e+01 +2.4975502425e+01 -1.7650464746e+02 1.7949296956e+02 0.0000000000e+00 0.0000e+00 -1.0000e+00
<mgrwt>
<rscale>  0 0.90060955E+02</rscale>
<asrwt>0</asrwt>
<pdfrwt beam="2">  1        3 0.32417900E-01 0.90060955E+02</pdfrwt>
<pdfrwt beam="1">  1       -3 0.14804765E-02 0.90060955E+02</pdfrwt>
<totfact> 0.28405498E+04</totfact>
</mgrwt>
</event>
<event>
 5      1 +1.6944000e+03 9.06618000e+01 7.81860800e-03 1.30125700e-01
       -1 -1    0    0    0  501 -0.0000000000e+00 +0.0000000000e+00 +4.6764727951e+01 4.6764727951e+01 0.0000000000e+00 0.0000e+00 1.0000e+00
        1 -1    0    0  501    0 +0.0000000000e+00 -0.0000000000e+00 -4.3941029995e+01 4.3941029995e+01 0.0000000000e+00 0.0000e+00 -1.0000e+00
       23  2    1    2    0    0 +0.0000000000e+00 +0.0000000000e+00 +2.8236979559e+00 9.0705757945e+01 9.0661796002e+01 0.0000e+00 0.0000e+00
      -13  1    3    3    0    0 -2.1225781021e+01 -3.8500296939e+01 +1.2466354611e+01 4.5697009110e+01 0.0000000000e+00 0.0000e+00 1.0000e+00
       13  1    3    3    0    0 +2.1225781021e+01 +3.8500296939e+01 -9.6426566552e+00 4.5008748835e+01 0.0000000000e+00 0.0000e+00 -1.0000e+00
<mgrwt>
<rscale>  0 0.90661796E+02</rscale>
<asrwt>0</asrwt>
<pdfrwt beam="2">  1        1 0.67601584E-02 0.90661796E+02</pdfrwt>
<pdfrwt beam="1">  1       -1 0.71945736E-02 0.90661796E+02</pdfrwt>
<totfact> 0.93436624E+04</totfact>
</mgrwt>
</event>
<event>
 4      1 +1.6944000e+03 4.41332400e+01 7.81860800e-03 1.47982600e-01
       -2 -1    0    0    0  501 -0.0000000000e+00 +0.0000000000e+00 +9.5839227107e+00 9.5839227107e+00 0.0000000000e+00 0.0000e+00 1.0000e+00
        2 -1    0    0  501    0 +0.0000000000e+00 -0.0000000000e+00 -5.0807556270e+01 5.0807556270e+01 0.0000000000e+00 0.0000e+00 -1.0000e+00
      -11  1    1    2    0    0 +1.6600272262e+01 -9.6420799748e+00 -3.5501316882e+01 4.0359413347e+01 0.0000000000e+00 0.0000e+00 -1.0000e+00
       11  1    1    2    0    0 -1.6600272262e+01 +9.6420799748e+00 -5.7223166782e+00 2.0032065634e+01 0.0000000000e+00 0.0000e+00 1.0000e+00
<mgrwt>
<rscale>  0 0.44133239E+02</rscale>
<asrwt>0</asrwt>
<pdfrwt beam="2">  1        2 0.78165471E-02 0.44133239E+02</pdfrwt>
<pdfrwt beam="1">  1       -2 0.14744496E-02 0.44133239E+02</pdfrwt>
<totfact> 0.70724454E+05</totfact>
</mgrwt>
</event>
<event>
 4      1 +1.6944000e+03 3.15712400e+01 7.81860800e-03 1.58134300e-01
       -1 -1    0    0    0  501 -0.0000000000e+00 +0.0000000000e+00 +6.7681569958e+01 6.7681569958e+01 0.0000000000e+00 0.0000e+00 1.0000e+00
        1 -1    0    0  501    0 +0.0000000000e+00 -0.0000000000e+00 -3.6817383190e+00 3.6817383190e+00 0.0000000000e+00 0.0000e+00 -1.0000e+00
      -11  1    1    2    0    0 -9.1636256241e+00 +9.8214169878e+00 +1.3257269312e+01 1.8872929180e+01 0.0000000000e+00 0.0000e+00 -1.0000e+00
       11  1    1    2    0    0 +9.1636256241e+00 -9.8214169878e+00 +5.0742562327e+01 5.2490379097e+01 0.0000000000e+00 0.0000e+00 1.0000e+00
<mgrwt>
<rscale>  0 0.31571242E+02</rscale>
<asrwt>0</asrwt>
<pdfrwt beam="2">  1        1 0.56642133E-03 0.31571242E+02</pdfrwt>
<pdfrwt beam="1">  1       -1 0.10412548E-01 0.31571242E+02</pdfrwt>
<totfact> 0.11939714E+06</totfact>
</mgrwt>
</event>
<event>
 5      1 +1.6944000e+03 8.98363700e+01 7.81860800e-03 1.30324800e-01
        1 -1    0    0  501    0 +0.0000000000e+00 +0.0000000000e+00 +6.2049868529e+01 6.2049868529e+01 0.0000000000e+00 0.0000e+00 -1.0000e+00
       -1 -1    0    0    0  501 -0.0000000000e+00 -0.0000000000e+00 -3.2516482114e+01 3.2516482114e+01 0.0000000000e+00 0.0000e+00 1.0000e+00
       23  2    1    2    0    0 +0.0000000000e+00 +0.0000000000e+00 +2.9533386415e+01 9.4566350643e+01 8.9836372148e+01 0.0000e+00 0.0000e+00
      -11  1    3    3    0    0 -1.3980519526e+01 -1.5477312655e+01 +5.6643703867e+01 6.0361505291e+01 0.0000000000e+00 0.0000e+00 1.0000e+00
       11  1    3    3    0    0 +1.3980519526e+01 +1.5477312655e+01 -2.7110317452e+01 3.4204845352e+01 0.0000000000e+00 0.0000e+00 -1.0000e+00
<mgrwt>
<rscale>  0 0.89836372E+02</rscale>
<asrwt>0</asrwt>
<pdfrwt beam="1">  1        1 0.95461336E-02 0.89836372E+02</pdfrwt>
<pdfrwt beam="2">  1       -1 0.50025357E-02 0.89836372E+02</pdfrwt>
<totfact> 0.10091243E+05</totfact>
</mgrwt>
</event>
<event>
 5      1 +1.6944000e+03 8.33086200e+01 7.81860800e-03 1.31991600e-01
        1 -1    0    0  501    0 +0.0000000000e+00 +0.0000000000e+00 +4.7304689341e+01 4.7304689341e+01 0.0000000000e+00 0.0000e+00 -1.0000e+00
       -1 -1    0    0    0  501 -0.0000000000e+00 -0.0000000000e+00 -3.6678851535e+01 3.6678851535e+01 0.0000000000e+00 0.0000e+00 1.0000e+00
       23  2    1    2    0    0 +0.0000000000e+00 +0.0000000000e+00 +1.0625837807e+01 8.3983540876e+01 8.3308623257e+01 0.0000e+00 0.0000e+00
      -13  1    3    3    0    0 +2.8303977901e+01 +2.8513457875e+01 -5.7738700814e+00 4.0589038184e+01 0.0000000000e+00 0.0000e+00 1.0000e+00
       13  1    3    3    0    0 -2.8303977901e+01 -2.8513457875e+01 +1.6399707888e+01 4.3394502691e+01 0.0000000000e+00 0.0000e+00 -1.0000e+00
<mgrwt>
<rscale>  0 0.83308623E+02</rscale>
<asrwt>0</asrwt>
<pdfrwt beam="1">  1        1 0.72776445E-02 0.83308623E+02</pdfrwt>
<pdfrwt beam="2">  1       -1 0.56429002E-02 0.83308623E+02</pdfrwt>
<totfact> 0.11950254E+05</totfact>
</mgrwt>
</event>
<event>
 4      1 +1.6944000e+03 1.08043800e+02 7.81860800e-03 1.26423600e-01
       -2 -1    0    0    0  501 -0.0000000000e+00 +0.0000000000e+00 +3.4510476351e+01 3.4510476351e+01 0.0000000000e+00 0.0000e+00 -1.0000e+00
        2 -1    0    0  501    0 +0.0000000000e+00 -0.0000000000e+00 -8.4564652978e+01 8.4564652978e+01 0.0000000000e+00 0.0000e+00 1.0000e+00
      -11  1    1    2    0    0 -3.9337883313e+01 +1.3569725911e+01 +1.2939589007e+01 4.3577970220e+01 0.0000000000e+00 0.0000e+00 -1.0000e+00
       11  1    1    2    0    0 +3.9337883313e+01 -1.3569725911e+01 -6.2993765634e+01 7.5497159109e+01 0.0000000000e+00 0.0000e+00 1.0000e+00
<mgrwt>
<rscale>  0 0.10804381E+03</rscale>
<asrwt>0</asrwt>
<pdfrwt beam="2">  1        2 0.13009947E-01 0.10804381E+03</pdfrwt>
<pdfrwt beam="1">  1       -2 0.53093041E-02 0.10804381E+03</pdfrwt>
<totfact> 0.72407641E+04</totfact>
</mgrwt>
</event>
<event>
 5      1 +1.6944000e+03 9.24483000e+01 7.81860800e-03 1.29702900e-01
       -4 -1    0    0    0  501 -0.0000000000e+00 +0.0000000000e+00 +2.3763315977e+02 2.3763315977e+02 0.0000000000e+00 0.0000e+00 1.0000e+00
        4 -1    0    0  501    0 +0.0000000000e+00 -0.0000000000e+00 -8.9914733307e+00 8.9914733307e+00 0.0000000000e+00 0.0000e+00 -1.0000e+00
       23  2    1    2    0    0 +0.0000000000e+00 +0.0000000000e+00 +2.2864168644e+02 2.4662463310e+02 9.2448303794e+01 0.0000e+00 0.0000e+00
      -11  1    3    3    0    0 +2.9048772173e+01 +2.3979563568e+01 +4.2847226058e+01 5.7050288471e+01 0.0000000000e+00 0.0000e+00 -1.0000e+00
       11  1    3    3    0    0 -2.9048772173e+01 -2.3979563568e+01 +1.8579446038e+02 1.8957434463e+02 0.0000000000e+00 0.0000e+00 1.0000e+00
<mgrwt>
<rscale>  0 0.92448304E+02</rscale>
<asrwt>0</asrwt>
<pdfrwt beam="2">  1        4 0.13833038E-02 0.92448304E+02</pdfrwt>
<pdfrwt beam="1">  1       -4 0.36558943E-01 0.92448304E+02</pdfrwt>
<totfact> 0.18871947E+04</totfact>
</mgrwt>
</event>
<event>
 5      1 +1.6944000e+03 9.17454100e+01 7.81860800e-03 1.29867900e-01
       -2 -1    0    0    0  501 -0.0000000000e+00 +0.0000000000e+00 +1.0540171296e+01 1.0540171296e+01 0.0000000000e+00 0.0000e+00 1.0000e+00
        2 -1    0    0  501    0 +0.0000000000e+00 -0.0000000000e+00 -1.9964620428e+02 1.9964620428e+02 0.0000000000e+00 0.0000e+00 -1.0000e+00
       23  2    1    2    0    0 +0.0000000000e+00 +0.0000000000e+00 -1.8910603299e+02 2.1018637558e+02 9.1745412783e+01 0.0000e+00 0.0000e+00
      -11  1    3    3    0    0 -3.6886387228e+01 -9.2458547174e+00 -3.5776520206e+01 5.2211596320e+01 0.0000000000e+00 0.0000e+00 1.0000e+00
       11  1    3    3    0    0 +3.6886387228e+01 +9.2458547174e+00 -1.5332951278e+02 1.5797477926e+02 0.0000000000e+00 0.0000e+00 -1.0000e+00
<mgrwt>
<rscale>  0 0.91745413E+02</rscale>
<asrwt>0</asrwt>
<pdfrwt beam="2">  1        2 0.30714798E-01 0.91745413E+02</pdfrwt>
<pdfrwt beam="1">  1       -2 0.16215650E-02 0.91745413E+02</pdfrwt>
<totfact> 0.15201185E+05</totfact>
</mgrwt>
</event>
<event>
 5      1 +1.6944000e+03 9.28006400e+01 7.81860800e-03 1.29620800e-01
       -2 -1    0    0    0  501 -0.0000000000e+00 +0.0000000000e+00 +1.7150164215e+02 1.7150164215e+02 0.0000000000e+00 0.0000e+00 1.0000e+00
        2 -1    0    0  501    0 +0.0000000000e+00 -0.0000000000e+00 -1.2553756442e+01 1.2553756442e+01 0.0000000000e+00 0.0000e+00 -1.0000e+00
       23  2    1    2    0    0 +0.0000000000e+00 +0.0000000000e+00 +1.5894788571e+02 1.8405539860e+02 9.2800643209e+01 0.0000e+00 0.0000e+00
      -11  1    3    3    0    0 -2.3180706662e+01 +2.8815525419e+01 +2.3893988311e+01 4.4029562159e+01 0.0000000000e+00 0.0000e+00 -1.0000e+00
       11  1    3    3    0    0 +2.3180706662e+01 -2.8815525419e+01 +1.3505389740e+02 1.4002583644e+02 0.0000000000e+00 0.0000e+00 1.0000e+00
<mgrwt>
<rscale>  0 0.92800643E+02</rscale>
<asrwt>0</asrwt>
<pdfrwt beam="2">  1        2 0.19313473E-02 0.92800643E+02</pdfrwt>
<pdfrwt beam="1">  1       -2 0.26384866E-01 0.92800643E+02</pdfrwt>
<totfact> 0.63486704E+04</totfact>
</mgrwt>
</event>
<event>
 5      1 +1.6944000e+03 9.13149900e+01 7.81860800e-03 1.29969800e-01
        1 -1    0    0  501    0 +0.0000000000e+00 +0.0000000000e+00 +1.2094359791e+01 1.2094359791e+01 0.0000000000e+00 0.0000e+00 -1.0000e+00
       -1 -1    0    0    0  501 -0.0000000000e+00 -0.0000000000e+00 -1.7236188739e+02 1.7236188739e+02 0.0000000000e+00 0.0000e+00 1.0000e+00
       23  2    1    2    0    0 +0.0000000000e+00 +0.0000000000e+00 -1.6026752760e+02 1.8445624718e+02 9.1314986292e+01 0.0000e+00 0.0000e+00
      -13  1    3    3    0    0 -1.9478794100e+01 -4.1115313120e+01 -7.2385204983e+01 8.5495674119e+01 0.0000000000e+00 0.0000e+00 1.0000e+00
       13  1    3    3    0    0 +1.9478794100e+01 +4.1115313120e+01 -8.7882322613e+01 9.8960573060e+01 0.0000000000e+00 0.0000e+00 -1.0000e+00
<mgrwt>
<rscale>  0 0.91314986E+02</rscale>
<asrwt>0</asrwt>
<pdfrwt beam="1">  1        1 0.18606709E-02 0.91314986E+02</pdfrwt>
<pdfrwt beam="2">  1       -1 0.26517211E-01 0.91314986E+02</pdfrwt>
<totfact> 0.71998588E+04</totfact>
</mgrwt>
</event>
<event>
 5      1 +1.6944000e+03 8.82305000e+01 7.81860800e-03 1.30719400e-01
       -2 -1    0    0    0  501 -0.0000000000e+00 +0.0000000000e+00 +3.1913849721e+01 3.1913849721e+01 0.0000000000e+00 0.0000e+00 1.0000e+00
        2 -1    0    0  501    0 +0.0000000000e+00 -0.0000000000e+00 -6.0981521317e+01 6.0981521317e+01 0.0000000000e+00 0.0000e+00 -1.0000e+00
       23  2    1    2    0    0 +0.0000000000e+00 +0.0000000000e+00 -2.9067671596e+01 9.2895371038e+01 8.8230496022e+01 0.0000e+00 0.0000e+00
      -11  1    3    3    0    0 -4.0476433963e+00 -1.9117220066e+01 -5.6176247495e+01 5.9477914411e+01 0.0000000000e+00 0.0000e+00 -1.0000e+00
       11  1    3    3    0    0 +4.0476433963e+00 +1.9117220066e+01 +2.7108575899e+01 3.3417456627e+01 0.0000000000e+00 0.0000e+00 1.0000e+00
<mgrwt>
<rscale>  0 0.88230496E+02</rscale>
<asrwt>0</asrwt>
<pdfrwt beam="2">  1        2 0.93817724E-02 0.88230496E+02</pdfrwt>
<pdfrwt beam="1">  1       -2 0.49098231E-02 0.88230496E+02</pdfrwt>
<totfact> 0.11682500E+05</totfact>
</mgrwt>
</event>
<event>
 5      1 +1.6944000e+03 9.29542000e+01 7.81860800e-03 1.29585100e-01
       -1 -1    0    0    0  501 -0.0000000000e+00 +0.0000000000e+00 +2.7316868800e+01 2.7316868800e+01 0.0000000000e+00 0.0000e+00 1.0000e+00
        1 -1    0    0  501    0 +0.0000000000e+00 -0.0000000000e+00 -7.9076446223e+01 7.9076446223e+01 0.0000000000e+00 0.0000e+00 -1.0000e+00
       23  2    1    2    0    0 +0.0000000000e+00 +0.0000000000e+00 -5.1759577423e+01 1.0639331502e+02 9.2954201769e+01 0.0000e+00 0.0000e+00
      -11  1    3    3    0    0 +4.3923776312e+01 -1.3711099126e+01 -1.8389268857e+01 4.9552573837e+01 0.0000000000e+00 0.0000e+00 1.0000e+00
       11  1    3    3    0    0 -4.3923776312e+01 +1.3711099126e+01 -3.3370308566e+01 5.6840741186e+01 0.0000000000e+00 0.0000e+00 -1.0000e+00
<mgrwt>
<rscale>  0 0.92954202E+02</rscale>
<asrwt>0</asrwt>
<pdfrwt beam="2">  1        1 0.12165607E-01 0.92954202E+02</pdfrwt>
<pdfrwt beam="1">  1       -1 0.42025952E-02 0.92954202E+02</pdfrwt>
<totfact> 0.95356477E+04</totfact>
</mgrwt>
</event>
<event>
 5      1 +1.6944000e+03 9.15446200e+01 7.81860800e-03 1.29915400e-01
       -1 -1    0    0    0  501 -0.0000000000e+00 +0.0000000000e+00 +1.4591845028e+01 1.4591845028e+01 0.0000000000e+00 0.0000e+00 1.0000e+00
        1 -1    0    0  501    0 +0.0000000000e+00 -0.0000000000e+00 -1.4358049958e+02 1.4358049958e+02 0.0000000000e+00 0.0000e+00 -1.0000e+00
       23  2    1    2    0    0 +0.0000000000e+00 +0.0000000000e+00 -1.2898865455e+02 1.5817234461e+02 9.1544620789e+01 0.0000e+00 0.0000e+00
      -11  1    3    3    0    0 +2.3459938618e+01 +3.9147329471e+01 -5.8453815521e+01 7.4160169051e+01 0.0000000000e+00 0.0000e+00 -1.0000e+00
       11  1    3    3    0    0 -2.3459938618e+01 -3.9147329471e+01 -7.0534839030e+01 8.4012175556e+01 0.0000000000e+00 0.0000e+00 1.0000e+00
<mgrwt>
<rscale>  0 0.91544621E+02</rscale>
<asrwt>0</asrwt>
<pdfrwt beam="2">  1        1 0.22089308E-01 0.91544621E+02</pdfrwt>
<pdfrwt beam="1">  1       -1 0.22448992E-02 0.91544621E+02</pdfrwt>
<totfact> 0.11003483E+05</totfact>
</mgrwt>
</event>
<event>
 4      1 +1.6944000e+03 3.04084800e+01 7.81860800e-03 1.59361700e-01
        2 -1    0    0  501    0 +0.0000000000e+00 +0.0000000000e+00 +2.1075078988e+00 2.1075078988e+00 0.0000000000e+00 0.0000e+00 -1.0000e+00
       -2 -1    0    0    0  501 -0.0000000000e+00 -0.0000000000e+00 -1.0968830959e+02 1.0968830959e+02 0.0000000000e+00 0.0000e+00 1.0000e+00
      -11  1    1    2    0    0 -1.3464624911e+01 -2.0152451602e+00 -2.8906485727e+01 3.1952187001e+01 0.0000000000e+00 0.0000e+00 -1.0000e+00
       11  1    1    2    0    0 +1.3464624911e+01 +2.0152451602e+00 -7.8674315963e+01 7.9843630487e+01 0.0000000000e+00 0.0000e+00 1.0000e+00
<mgrwt>
<rscale>  0 0.30408484E+02</rscale>
<asrwt>0</asrwt>
<pdfrwt beam="1">  1        2 0.32423196E-03 0.30408484E+02</pdfrwt>
<pdfrwt beam="2">  1       -2 0.16875126E-01 0.30408484E+02</pdfrwt>
<totfact> 0.11294821E+06</totfact>
</mgrwt>
</event>
<event>
 4      1 +1.6944000e+03 4.03313600e+01 7.81860800e-03 1.50578700e-01
       -1 -1    0    0    0  501 -0.0000000000e+00 +0.0000000000e+00 +4.7172156051e+00 4.7172156051e+00 0.0000000000e+00 0.0000e+00 1.0000e+00
        1 -1    0    0  501    0 +0.0000000000e+00 -0.0000000000e+00 -8.6206482501e+01 8.6206482501e+01 0.0000000000e+00 0.0000e+00 -1.0000e+00
      -11  1    1    2    0    0 -8.5129734258e+00 -1.7804129294e+01 -3.1395778008e+01 3.7083050214e+01 0.0000000000e+00 0.0000e+00 -1.0000e+00
       11  1    1    2    0    0 +8.5129734258e+00 +1.7804129294e+01 -5.0093488889e+01 5.3840647893e+01 0.0000000000e+00 0.0000e+00 1.0000e+00
<mgrwt>
<rscale>  0 0.40331356E+02</rscale>
<asrwt>0</asrwt>
<pdfrwt beam="2">  1        1 0.13262535E-01 0.40331356E+02</pdfrwt>
<pdfrwt beam="1">  1       -1 0.72572550E-03 0.40331356E+02</pdfrwt>
<totfact> 0.84663294E+05</totfact>
</mgrwt>
</event>
<event>
 5      1 +1.6944000e+03 7.19727100e+01 7.81860800e-03 1.35351000e-01
        4 -1    0    0  501    0 +0.0000000000e+00 +0.0000000000e+00 +1.4744935955e+01 1.4744935955e+01 0.0000000000e+00 0.0000e+00 -1.0000e+00
       -4 -1    0    0    0  501 -0.0000000000e+00 -0.0000000000e+00 -8.7827973070e+01 8.7827973070e+01 0.0000000000e+00 0.0000e+00 1.0000e+00
       23  2    1    2    0    0 +0.0000000000e+00 +0.0000000000e+00 -7.3083037115e+01 1.0257290902e+02 7.1972712550e+01 0.0000e+00 0.0000e+00
      -11  1    3    3    0    0 -6.8479227711e+00 +1.4640014065e+01 +9.2812957662e+00 1.8637771036e+01 0.0000000000e+00 0.0000e+00 -1.0000e+00
       11  1    3    3    0    0 +6.8479227711e+00 -1.4640014065e+01 -8.2364332881e+01 8.3935137988e+01 0.0000000000e+00 0.0000e+00 1.0000e+00
<mgrwt>
<rscale>  0 0.71972713E+02</rscale>
<asrwt>0</asrwt>
<pdfrwt beam="1">  1        4 0.22684517E-02 0.71972713E+02</pdfrwt>
<pdfrwt beam="2">  1       -4 0.13511996E-01 0.71972713E+02</pdfrwt>
<totfact> 0.49343077E+04</totfact>
</mgrwt>
</event>
<event>
 5      1 +1.6944000e+03 8.90151500e+01 7.81860800e-03 1.30525400e-01
       -2 -1    0    0    0  501 -0.0000000000e+00 +0.0000000000e+00 +1.5248803943e+01 1.5248803943e+01 0.0000000000e+00 0.0000e+00 1.0000e+00
        2 -1    0    0  501    0 +0.0000000000e+00 -0.0000000000e+00 -1.2990686322e+02 1.2990686322e+02 0.0000000000e+00 0.0000e+00 -1.0000e+00
       23  2    1    2    0    0 +0.0000000000e+00 +0.0000000000e+00 -1.1465805928e+02 1.4515566717e+02 8.9015151254e+01 0.0000e+00 0.0000e+00
      -13  1    3    3    0    0 -2.0691281391e+00 -3.6515195796e+01 -9.8688146715e+01 1.0524728556e+02 0.0000000000e+00 0.0000e+00 -1.0000e+00
       13  1    3    3    0    0 +2.0691281391e+00 +3.6515195796e+01 -1.5969912565e+01 3.9908381609e+01 0.0000000000e+00 0.0000e+00 1.0000e+00
<mgrwt>
<rscale>  0 0.89015151E+02</rscale>
<asrwt>0</asrwt>
<pdfrwt beam="2">  1        2 0.19985672E-01 0.89015151E+02</pdfrwt>
<pdfrwt beam="1">  1       -2 0.23459698E-02 0.89015151E+02</pdfrwt>
<totfact> 0.14223637E+05</totfact>
</mgrwt>
</event>
<event>
 5      1 +1.6944000e+03 9.11053000e+01 7.81860800e-03 1.30019700e-01
       -2 -1    0    0    0  501 -0.0000000000e+00 +0.0000000000e+00 +7.2320605014e+01 7.2320605014e+01 0.0000000000e+00 0.0000e+00 1.0000e+00
        2 -1    0    0  501    0 +0.0000000000e+00 -0.0000000000e+00 -2.8692290062e+01 2.8692290062e+01 0.0000000000e+00 0.0000e+00 -1.0000e+00
       23  2    1    2    0    0 +0.0000000000e+00 +0.0000000000e+00 +4.3628314951e+01 1.0101289508e+02 9.1105296806e+01 0.0000e+00 0.0000e+00
      -13  1    3    3    0    0 +2.9742779879e+01 -2.9162044925e+01 +1.3702606361e+00 4.1676557359e+01 0.0000000000e+00 0.0000e+00 -1.0000e+00
       13  1    3    3    0    0 -2.9742779879e+01 +2.9162044925e+01 +4.2258054315e+01 5.9336337717e+01 0.0000000000e+00 0.0000e+00 1.0000e+00
<mgrwt>
<rscale>  0 0.91105297E+02</rscale>
<asrwt>0</asrwt>
<pdfrwt beam="2">  1        2 0.44141985E-02 0.91105297E+02</pdfrwt>
<pdfrwt beam="1">  1       -2 0.11126247E-01 0.91105297E+02</pdfrwt>
<totfact> 0.87619805E+04</totfact>
</mgrwt>
</event>
<event>
 5      1 +1.6944000e+03 9.01224000e+01 7.81860800e-03 1.30255600e-01
       -3 -1    0    0    0  501 -0.0000000000e+00 +0.0000000000e+00 +1.3106828050e+02 1.3106828050e+02 0.0000000000e+00 0.0000e+00 1.0000e+00
        3 -1    0    0  501    0 +0.0000000000e+00 -0.0000000000e+00 -1.5492013733e+01 1.5492013733e+01 0.0000000000e+00 0.0000e+00 -1.0000e+00
       23  2    1    2    0    0 +0.0000000000e+00 +0.0000000000e+00 +1.1557626676e+02 1.4656029423e+02 9.0122396804e+01 0.0000e+00 0.0000e+00
      -11  1    3    3    0    0 -1.9431101304e+01 -3.9901906929e+01 +4.5109568060e+01 6.3281932690e+01 0.0000000000e+00 0.0000e+00 1.0000e+00
       11  1    3    3    0    0 +1.9431101304e+01 +3.9901906929e+01 +7.0466698704e+01 8.3278361540e+01 0.0000000000e+00 0.0000e+00 -1.0000e+00
<mgrwt>
<rscale>  0 0.90122397E+02</rscale>
<asrwt>0</asrwt>
<pdfrwt beam="2">  1        3 0.23833868E-02 0.90122397E+02</pdfrwt>
<pdfrwt beam="1">  1       -3 0.20164350E-01 0.90122397E+02</pdfrwt>
<totfact> 0.32527002E+04</totfact>
</mgrwt>
</event>
<event>
 5      1 +1.6944000e+03 9.02354300e+01 7.81860800e-03 1.30228300e-01
       -2 -1    0    0    0  501 -0.0000000000e+00 +0.0000000000e+00 +1.2962305930e+02 1.2962305930e+02 0.0000000000e+00 0.0000e+00 1.0000e+00
        2 -1    0    0  501    0 +0.0000000000e+00 -0.0000000000e+00 -1.5704059387e+01 1.5704059387e+01 0.0000000000e+00 0.0000e+00 -1.0000e+00
       23  2    1    2    0    0 +0.0000000000e+00 +0.0000000000e+00 +1.1391899991e+02 1.4532711868e+02 9.0235430318e+01 0.0000e+00 0.0000e+00
      -11  1    3    3    0    0 -2.4233314736e+01 -1.5947355263e+01 +1.1261119257e+02 1.1628779977e+02 0.0000000000e+00 0.0000e+00 1.0000e+00
       11  1    3    3    0    0 +2.4233314736e+01 +1.5947355263e+01 +1.3078073383e+00 2.9039318914e+01 0.0000000000e+00 0.0000e+00 -1.0000e+00
<mgrwt>
<rscale>  0 0.90235430E+02</rscale>
<asrwt>0</asrwt>
<pdfrwt beam="2">  1        2 0.24160092E-02 0.90235430E+02</pdfrwt>
<pdfrwt beam="1">  1       -2 0.19942008E-01 0.90235430E+02</pdfrwt>
<totfact> 0.75464835E+04</totfact>
</mgrwt>
</event>
<event>
 4      1 +1.6944000e+03 3.84164200e+01 7.81860800e-03 1.52019900e-01
        2 -1    0    0  501    0 +0.0000000000e+00 +0.0000000000e+00 +1.2749740149e+02 1.2749740149e+02 0.0000000000e+00 0.0000e+00 1.0000e+00
       -2 -1    0    0    0  501 -0.0000000000e+00 -0.0000000000e+00 -2.8938263462e+00 2.8938263462e+00 0.0000000000e+00 0.0000e+00 -1.0000e+00
      -11  1    1    2    0    0 +1.5821620592e+01 +1.0259232948e+01 +7.4717061346e+01 7.7059813101e+01 0.0000000000e+00 0.0000e+00 1.0000e+00
       11  1    1    2    0    0 -1.5821620592e+01 -1.0259232948e+01 +4.9886513800e+01 5.3331414738e+01 0.0000000000e+00 0.0000e+00 -1.0000e+00
<mgrwt>
<rscale>  0 0.38416420E+02</rscale>
<asrwt>0</asrwt>
<pdfrwt beam="1">  1        2 0.19614980E-01 0.38416420E+02</pdfrwt>
<pdfrwt beam="2">  1       -2 0.44520415E-03 0.38416420E+02</pdfrwt>
<totfact> 0.12297635E+06</totfact>
</mgrwt>
</event>
<event>
 5      1 +1.6944000e+03 9.78579000e+01 7.81860800e-03 1.28486600e-01
        2 -1    0    0  501    0 +0.0000000000e+00 +0.0000000000e+00 +9.4386599650e+01 9.4386599650e+01 0.0000000000e+00 0.0000e+00 -1.0000e+00
       -2 -1    0    0    0  501 -0.0000000000e+00 -0.0000000000e+00 -2.5364218314e+01 2.5364218314e+01 0.0000000000e+00 0.0000e+00 1.0000e+00
       23  2    1    2    0    0 +0.0000000000e+00 +0.0000000000e+00 +6.9022381336e+01 1.1975081796e+02 9.7857903501e+01 0.0000e+00 0.0000e+00
      -11  1    3    3    0    0 +2.4598549635e+01 -3.8157295711e+01 +1.2181225661e+01 4.7004788253e+01 0.0000000000e+00 0.0000e+00 1.0000e+00
       11  1    3    3    0    0 -2.4598549635e+01 +3.8157295711e+01 +5.6841155675e+01 7.2746029710e+01 0.0000000000e+00 0.0000e+00 -1.0000e+00
<mgrwt>
<rscale>  0 0.97857904E+02</rscale>
<asrwt>0</asrwt>
<pdfrwt beam="1">  1        2 0.14521015E-01 0.97857904E+02</pdfrwt>
<pdfrwt beam="2">  1       -2 0.39021875E-02 0.97857904E+02</pdfrwt>
<totfact> 0.99064376E+04</totfact>
</mgrwt>
</event>
<event>
 5      1 +1.6944000e+03 9.47334900e+01 7.81860800e-03 1.29177700e-01
        2 -1    0    0  501    0 +0.0000000000e+00 +0.0000000000e+00 +9.9668048828e+01 9.9668048828e+01 0.0000000000e+00 0.0000e+00 -1.0000e+00
       -2 -1    0    0    0  501 -0.0000000000e+00 -0.0000000000e+00 -2.2510812354e+01 2.2510812354e+01 0.0000000000e+00 0.0000e+00 1.0000e+00
       23  2    1    2    0    0 +0.0000000000e+00 +0.0000000000e+00 +7.7157236475e+01 1.2217886118e+02 9.4733494495e+01 0.0000e+00 0.0000e+00
      -11  1    3    3    0    0 -3.1491234333e+01 +3.0966215415e+01 +1.6502150241e+01 4.7147908750e+01 0.0000000000e+00 0.0000e+00 1.0000e+00
       11  1    3    3    0    0 +3.1491234333e+01 -3.0966215415e+01 +6.0655086233e+01 7.5030952432e+01 0.0000000000e+00 0.0000e+00 -1.0000e+00
<mgrwt>
<rscale>  0 0.94733494E+02</rscale>
<asrwt>0</asrwt>
<pdfrwt beam="1">  1        2 0.15333546E-01 0.94733494E+02</pdfrwt>
<pdfrwt beam="2">  1       -2 0.34632020E-02 0.94733494E+02</pdfrwt>
<totfact> 0.11025408E+05</totfact>
</mgrwt>
</event>
<event>
 4      1 +1.6944000e+03 2.17080400e+01 7.81860800e-03 1.71335100e-01
        4 -1    0    0  501    0 +0.0000000000e+00 +0.0000000000e+00 +6.9975035477e+00 6.9975035477e+00 0.0000000000e+00 0.0000e+00 1.0000e+00
       -4 -1    0    0    0  501 -0.0000000000e+00 -0.0000000000e+00 -1.6835961646e+01 1.6835961646e+01 0.0000000000e+00 0.0000e+00 -1.0000e+00
      -11  1    1    2    0    0 -1.0585727376e+01 -3.9628488328e-01 -7.5162059806e+00 1.2988765074e+01 0.0000000000e+00 0.0000e+00 1.0000e+00
       11  1    1    2    0    0 +1.0585727376e+01 +3.9628488328e-01 -2.3222521175e+00 1.0844700120e+01 0.0000000000e+00 0.0000e+00 -1.0000e+00
<mgrwt>
<rscale>  0 0.21708036E+02</rscale>
<asrwt>0</asrwt>
<pdfrwt beam="1">  1        4 0.10765390E-02 0.21708036E+02</pdfrwt>
<pdfrwt beam="2">  1       -4 0.25901479E-02 0.21708036E+02</pdfrwt>
<totfact> 0.10795992E+06</totfact>
</mgrwt>
</event>
<event>
 5      1 +1.6944000e+03 9.12421900e+01 7.81860800e-03 1.29987100e-01
       -1 -1    0    0    0  501 -0.0000000000e+00 +0.0000000000e+00 +1.3976690544e+01 1.3976690544e+01 0.0000000000e+00 0.0000e+00 1.0000e+00
        1 -1    0    0  501    0 +0.0000000000e+00 -0.0000000000e+00 -1.4891110118e+02 1.4891110118e+02 0.0000000000e+00 0.0000e+00 -1.0000e+00
       23  2    1    2    0    0 +0.0000000000e+00 +0.0000000000e+00 -1.3493441064e+02 1.6288779172e+02 9.1242191551e+01 0.0000e+00 0.0000e+00
      -13  1    3    3    0    0 +3.9580711298e+01 +7.1703201917e+00 -1.0589053538e+02 1.1327334939e+02 0.0000000000e+00 0.0000e+00 -1.0000e+00
       13  1    3    3    0    0 -3.9580711298e+01 -7.1703201917e+00 -2.9043875260e+01 4.9614442339e+01 0.0000000000e+00 0.0000e+00 1.0000e+00
<mgrwt>
<rscale>  0 0.91242192E+02</rscale>
<asrwt>0</asrwt>
<pdfrwt beam="2">  1        1 0.22909398E-01 0.91242192E+02</pdfrwt>
<pdfrwt beam="1">  1       -1 0.21502603E-02 0.91242192E+02</pdfrwt>
<totfact> 0.11176624E+05</totfact>
</mgrwt>
</event>
<event>
 5      1 +1.6944000e+03 9.08832300e+01 7.81860800e-03 1.30072700e-01
       -1 -1    0    0    0  501 -0.0000000000e+00 +0.0000000000e+00 +5.2991661309e+01 5.2991661309e+01 0.0000000000e+00 0.0000e+00 1.0000e+00
        1 -1    0    0  501    0 +0.0000000000e+00 -0.0000000000e+00 -3.8967271395e+01 3.8967271395e+01 0.0000000000e+00 0.0000e+00 -1.0000e+00
       23  2    1    2    0    0 +0.0000000000e+00 +0.0000000000e+00 +1.4024389915e+01 9.1958932704e+01 9.0883231630e+01 0.0000e+00 0.0000e+00
      -11  1    3    3    0    0 -4.5189891860e+01 +4.5991697934e+00 +8.3165450020e+00 4.6178388991e+01 0.0000000000e+00 0.0000e+00 -1.0000e+00
       11  1    3    3    0    0 +4.5189891860e+01 -4.5991697934e+00 +5.7078449128e+00 4.5780543713e+01 0.0000000000e+00 0.0000e+00 1.0000e+00
<mgrwt>
<rscale>  0 0.90883232E+02</rscale>
<asrwt>0</asrwt>
<pdfrwt beam="2">  1        1 0.59949648E-02 0.90883232E+02</pdfrwt>
<pdfrwt beam="1">  1       -1 0.81525633E-02 0.90883232E+02</pdfrwt>
<totfact> 0.91130740E+04</totfact>
</mgrwt>
</event>
<event>
 5      1 +1.6944000e+03 8.59970900e+01 7.81860800e-03 1.31284500e-01
        2 -1    0    0  501    0 +0.0000000000e+00 +0.0000000000e+00 +1.8795600889e+01 1.8795600889e+01 0.0000000000e+00 0.0000e+00 -1.0000e+00
       -2 -1    0    0    0  501 -0.0000000000e+00 -0.0000000000e+00 -9.8367417028e+01 9.8367417028e+01 0.0000000000e+00 0.0000e+00 1.0000e+00
       23  2    1    2    0    0 +0.0000000000e+00 +0.0000000000e+00 -7.9571816139e+01 1.1716301792e+02 8.5997086253e+01 0.0000e+00 0.0000e+00
      -11  1    3    3    0    0 +5.6919987205e-01 -4.2700424578e+01 -4.6628454935e+01 6.3228656931e+01 0.0000000000e+00 0.0000e+00 1.0000e+00
       11  1    3    3    0    0 -5.6919987205e-01 +4.2700424578e+01 -3.2943361203e+01 5.3934360987e+01 0.0000000000e+00 0.0000e+00 -1.0000e+00
<mgrwt>
<rscale>  0 0.85997086E+02</rscale>
<asrwt>0</asrwt>
<pdfrwt beam="1">  1        2 0.28916309E-02 0.85997086E+02</pdfrwt>
<pdfrwt beam="2">  1       -2 0.15133449E-01 0.85997086E+02</pdfrwt>
<totfact> 0.92746044E+04</totfact>
</mgrwt>
</event>
<event>
 5      1 +1.6944000e+03 9.09902300e+01 7.81860800e-03 1.30047100e-01
        1 -1    0    0  501    0 +0.0000000000e+00 +0.0000000000e+00 +2.2035735539e+01 2.2035735539e+01 0.0000000000e+00 0.0000e+00 -1.0000e+00
       -1 -1    0    0    0  501 -0.0000000000e+00 -0.0000000000e+00 -9.3929501798e+01 9.3929501798e+01 0.0000000000e+00 0.0000e+00 1.0000e+00
       23  2    1    2    0    0 +0.0000000000e+00 +0.0000000000e+00 -7.1893766260e+01 1.1596523734e+02 9.0990233781e+01 0.0000e+00 0.0000e+00
      -11  1    3    3    0    0 -2.4459492622e+01 +2.4008448439e-01 +1.2942032575e+01 2.7673464312e+01 0.0000000000e+00 0.0000e+00 -1.0000e+00
       11  1    3    3    0    0 +2.4459492622e+01 -2.4008448439e-01 -8.4835798835e+01 8.8291773024e+01 0.0000000000e+00 0.0000e+00 1.0000e+00
<mgrwt>
<rscale>  0 0.90990234E+02</rscale>
<asrwt>0</asrwt>
<pdfrwt beam="1">  1        1 0.33901132E-02 0.90990234E+02</pdfrwt>
<pdfrwt beam="2">  1       -1 0.14450692E-01 0.90990234E+02</pdfrwt>
<totfact> 0.82744977E+04</totfact>
</mgrwt>
</event>
<event>
 5      1 +1.6944000e+03 9.94231500e+01 7.81860800e-03 1.28151400e-01
       -4 -1    0    0    0  501 -0.0000000000e+00 +0.0000000000e+00 +2.8128448754e+01 2.8128448754e+01 0.0000000000e+00 0.0000e+00 1.0000e+00
        4 -1    0    0  501    0 +0.0000000000e+00 -0.0000000000e+00 -8.7855554013e+01 8.7855554013e+01 0.0000000000e+00 0.0000e+00 -1.0000e+00
       23  2    1    2    0    0 +0.0000000000e+00 +0.0000000000e+00 -5.9727105259e+01 1.1598400277e+02 9.9423145169e+01 0.0000e+00 0.0000e+00
      -13  1    3    3    0    0 -4.9025269585e+01 +8.0984567971e+00 -3.1585335012e+01 5.8878650190e+01 0.0000000000e+00 0.0000e+00 -1.0000e+00
       13  1    3    3    0    0 +4.9025269585e+01 -8.0984567971e+00 -2.8141770247e+01 5.7105352577e+01 0.0000000000e+00 0.0000e+00 1.0000e+00
<mgrwt>
<rscale>  0 0.99423145E+02</rscale>
<asrwt>0</asrwt>
<pdfrwt beam="2">  1        4 0.13516239E-01 0.99423145E+02</pdfrwt>
<pdfrwt beam="1">  1       -4 0.43274537E-02 0.99423145E+02</pdfrwt>
<totfact> 0.20146076E+04</totfact>
</mgrwt>
</event>
<event>
 4      1 +1.6944000e+03 7.83584100e+01 7.81860800e-03 1.33377600e-01
       -2 -1    0    0    0  501 -0.0000000000e+00 +0.0000000000e+00 +3.3189717813e+01 3.3189717813e+01 0.0000000000e+00 0.0000e+00 1.0000e+00
        2 -1    0    0  501    0 +0.0000000000e+00 -0.0000000000e+00 -4.6249569708e+01 4.6249569708e+01 0.0000000000e+00 0.0000e+00 -1.0000e+00
      -13  1    1    2    0    0 +1.2212322107e+01 -9.3649640981e-01 -4.4258761434e+01 4.5922280000e+01 0.0000000000e+00 0.0000e+00 -1.0000e+00
       13  1    1    2    0    0 -1.2212322107e+01 +9.3649640981e-01 +3.1198909538e+01 3.3517007521e+01 0.0000000000e+00 0.0000e+00 1.0000e+00
<mgrwt>
<rscale>  0 0.78358412E+02</rscale>
<asrwt>0</asrwt>
<pdfrwt beam="2">  1        2 0.71153184E-02 0.78358412E+02</pdfrwt>
<pdfrwt beam="1">  1       -2 0.51061104E-02 0.78358412E+02</pdfrwt>
<totfact> 0.15190831E+05</totfact>
</mgrwt>
</event>
<event>
 4      1 +1.6944000e+03 2.37627400e+01 7.81860800e-03 1.67943600e-01
       -2 -1    0    0    0  501 -0.0000000000e+00 +0.0000000000e+00 +6.1286138283e+00 6.1286138283e+00 0.0000000000e+00 0.0000e+00 1.0000e+00
        2 -1    0    0  501    0 +0.0000000000e+00 -0.0000000000e+00 -2.3034082121e+01 2.3034082121e+01 0.0000000000e+00 0.0000e+00 -1.0000e+00
      -13  1    1    2    0    0 +8.9229351783e+00 +6.0069839680e+00 -1.4645683397e+01 1.8171369535e+01 0.0000000000e+00 0.0000e+00 -1.0000e+00
       13  1    1    2    0    0 -8.9229351783e+00 -6.0069839680e+00 -2.2597848956e+00 1.0991326415e+01 0.0000000000e+00 0.0000e+00 1.0000e+00
<mgrwt>
<rscale>  0 0.23762743E+02</rscale>
<asrwt>0</asrwt>
<pdfrwt beam="2">  1        2 0.35437049E-02 0.23762743E+02</pdfrwt>
<pdfrwt beam="1">  1       -2 0.94286368E-03 0.23762743E+02</pdfrwt>
<totfact> 0.28465008E+06</totfact>
</mgrwt>
</event>
<event>
 5      1 +1.6944000e+03 9.44497700e+01 7.81860800e-03 1.29242000e-01
        1 -1    0    0  501    0 +0.0000000000e+00 +0.0000000000e+00 +7.3671728997e+01 7.3671728997e+01 0.0000000000e+00 0.0000e+00 -1.0000e+00
       -1 -1    0    0    0  501 -0.0000000000e+00 -0.0000000000e+00 -3.0271991457e+01 3.0271991457e+01 0.0000000000e+00 0.0000e+00 1.0000e+00
       23  2    1    2    0    0 +0.0000000000e+00 +0.0000000000e+00 +4.3399737540e+01 1.0394372045e+02 9.4449773972e+01 0.0000e+00 0.0000e+00
      -11  1    3    3    0    0 +2.1042536095e+01 -3.7311715217e+01 +4.3578816186e+01 6.1107001545e+01 0.0000000000e+00 0.0000e+00 -1.0000e+00
       11  1    3    3    0    0 -2.1042536095e+01 +3.7311715217e+01 -1.7907864557e-01 4.2836718909e+01 0.0000000000e+00 0.0000e+00 1.0000e+00
<mgrwt>
<rscale>  0 0.94449774E+02</rscale>
<asrwt>0</asrwt>
<pdfrwt beam="1">  1        1 0.11334112E-01 0.94449774E+02</pdfrwt>
<pdfrwt beam="2">  1       -1 0.46572295E-02 0.94449774E+02</pdfrwt>
<totfact> 0.90220514E+04</totfact>
</mgrwt>
</event>
<event>
 5      1 +1.6944000e+03 9.21202400e+01 7.81860800e-03 1.29779700e-01
       -2 -1    0    0    0  501 -0.0000000000e+00 +0.0000000000e+00 +9.4902556811e+00 9.4902556811e+00 0.0000000000e+00 0.0000e+00 1.0000e+00
        2 -1    0    0  501    0 +0.0000000000e+00 -0.0000000000e+00 -2.2354874245e+02 2.2354874245e+02 0.0000000000e+00 0.0000e+00 -1.0000e+00
       23  2    1    2    0    0 +0.0000000000e+00 +0.0000000000e+00 -2.1405848677e+02 2.3303899813e+02 9.2120241491e+01 0.0000e+00 0.0000e+00
      -13  1    3    3    0    0 +4.1213186799e+01 -1.0097847307e+01 -6.1702545436e+01 7.4884560489e+01 0.0000000000e+00 0.0000e+00 1.0000e+00
       13  1    3    3    0    0 -4.1213186799e+01 +1.0097847307e+01 -1.5235594133e+02 1.5815443764e+02 0.0000000000e+00 0.0000e+00 -1.0000e+00
<mgrwt>
<rscale>  0 0.92120241E+02</rscale>
<asrwt>0</asrwt>
<pdfrwt beam="2">  1        2 0.34392113E-01 0.92120241E+02</pdfrwt>
<pdfrwt beam="1">  1       -2 0.14600394E-02 0.92120241E+02</pdfrwt>
<totfact> 0.15668504E+05</totfact>
</mgrwt>
</event>
<event>
 5      1 +1.6944000e+03 1.04928000e+02 7.81860800e-03 1.27026200e-01
       -3 -1    0    0    0  501 -0.0000000000e+00 +0.0000000000e+00 +2.1721216445e+02 2.1721216445e+02 0.0000000000e+00 0.0000e+00 1.0000e+00
        3 -1    0    0  501    0 +0.0000000000e+00 -0.0000000000e+00 -1.2671804934e+01 1.2671804934e+01 0.0000000000e+00 0.0000e+00 -1.0000e+00
       23  2    1    2    0    0 +0.0000000000e+00 +0.0000000000e+00 +2.0454035952e+02 2.2988396938e+02 1.0492797867e+02 0.0000e+00 0.0000e+00
      -13  1    3    3    0    0 +3.8010099312e+01 -2.8878666620e+01 +5.4585310315e+01 7.2514144397e+01 0.0000000000e+00 0.0000e+00 1.0000e+00
       13  1    3    3    0    0 -3.8010099312e+01 +2.8878666620e+01 +1.4995504920e+02 1.5736982499e+02 0.0000000000e+00 0.0000e+00 -1.0000e+00
<mgrwt>
<rscale>  0 0.10492798E+03</rscale>
<asrwt>0</asrwt>
<pdfrwt beam="2">  1        3 0.19495086E-02 0.10492798E+03</pdfrwt>
<pdfrwt beam="1">  1       -3 0.33417253E-01 0.10492798E+03</pdfrwt>
<totfact> 0.18446864E+04</totfact>
</mgrwt>
</event>
<event>
 5      1 +1.6944000e+03 9.13805100e+01 7.81860800e-03 1.29954300e-01
        3 -1    0    0  501    0 +0.0000000000e+00 +0.0000000000e+00 +1.1968296878e+02 1.1968296878e+02 0.0000000000e+00 0.0000e+00 -1.0000e+00
       -3 -1    0    0    0  501 -0.0000000000e+00 -0.0000000000e+00 -1.7442742390e+01 1.7442742390e+01 0.0000000000e+00 0.0000e+00 1.0000e+00
       23  2    1    2    0    0 +0.0000000000e+00 +0.0000000000e+00 +1.0224022639e+02 1.3712571117e+02 9.1380505423e+01 0.0000e+00 0.0000e+00
      -13  1    3    3    0    0 -1.9903118223e+01 +1.5038072350e+01 +1.0856240936e+02 1.1139153676e+02 0.0000000000e+00 0.0000e+00 -1.0000e+00
       13  1    3    3    0    0 +1.9903118223e+01 -1.5038072350e+01 -6.3221829733e+00 2.5734174409e+01 0.0000000000e+00 0.0000e+00 1.0000e+00
<mgrwt>
<rscale>  0 0.91380505E+02</rscale>
<asrwt>0</asrwt>
<pdfrwt beam="1">  1        3 0.18412764E-01 0.91380505E+02</pdfrwt>
<pdfrwt beam="2">  1       -3 0.26834989E-02 0.91380505E+02</pdfrwt>
<totfact> 0.31919368E+04</totfact>
</mgrwt>
</event>
<event>
 4      1 +1.6944000e+03 3.35175800e+01 7.81860800e-03 1.56217300e-01
        1 -1    0    0  501    0 +0.0000000000e+00 +0.0000000000e+00 +5.0113169103e+01 5.0113169103e+01 0.0000000000e+00 0.0000e+00 -1.0000e+00
       -1 -1    0    0    0  501 -0.0000000000e+00 -0.0000000000e+00 -5.6044572216e+00 5.6044572216e+00 0.0000000000e+00 0.0000e+00 1.0000e+00
      -11  1    1    2    0    0 -7.2600939752e+00 +1.3347179576e+01 +3.4008987068e+01 3.7248723046e+01 0.0000000000e+00 0.0000e+00 -1.0000e+00
       11  1    1    2    0    0 +7.2600939752e+00 -1.3347179576e+01 +1.0499724813e+01 1.8468903279e+01 0.0000000000e+00 0.0000e+00 1.0000e+00
<mgrwt>
<rscale>  0 0.33517584E+02</rscale>
<asrwt>0</asrwt>
<pdfrwt beam="1">  1        1 0.77097180E-02 0.33517584E+02</pdfrwt>
<pdfrwt beam="2">  1       -1 0.86222422E-03 0.33517584E+02</pdfrwt>
<totfact> 0.12590294E+06</totfact>
</mgrwt>
</event>
<event>
 5      1 +1.6944000e+03 8.88890700e+01 7.81860800e-03 1.30556400e-01
       -4 -1    0    0    0  501 -0.0000000000e+00 +0.0000000000e+00 +1.0787057676e+02 1.0787057676e+02 0.0000000000e+00 0.0000e+00 -1.0000e+00
        4 -1    0    0  501    0 +0.0000000000e+00 -0.0000000000e+00 -1.8311914094e+01 1.8311914094e+01 0.0000000000e+00 0.0000e+00 1.0000e+00
       23  2    1    2    0    0 +0.0000000000e+00 +0.0000000000e+00 +8.9558662668e+01 1.2618249085e+02 8.8889070979e+01 0.0000e+00 0.0000e+00
      -13  1    3    3    0    0 +3.2625894897e+01 +2.9783022774e+01 +3.7848310274e+01 5.8171918088e+01 0.0000000000e+00 0.0000e+00 1.0000e+00
       13  1    3    3    0    0 -3.2625894897e+01 -2.9783022774e+01 +5.1710352394e+01 6.8010572767e+01 0.0000000000e+00 0.0000e+00 -1.0000e+00
<mgrwt>
<rscale>  0 0.88889071E+02</rscale>
<asrwt>0</asrwt>
<pdfrwt beam="2">  1        4 0.28172176E-02 0.88889071E+02</pdfrwt>
<pdfrwt beam="1">  1       -4 0.16595473E-01 0.88889071E+02</pdfrwt>
<totfact> 0.26690187E+04</totfact>
</mgrwt>
</event>
<event>
 5      1 +1.6944000e+03 9.42524900e+01 7.81860800e-03 1.29286900e-01
       -4 -1    0    0    0  501 -0.0000000000e+00 +0.0000000000e+00 +9.7413121769e+01 9.7413121769e+01 0.0000000000e+00 0.0000e+00 1.0000e+00
        4 -1    0    0  501    0 +0.0000000000e+00 -0.0000000000e+00 -2.2798602401e+01 2.2798602401e+01 0.0000000000e+00 0.0000e+00 -1.0000e+00
       23  2    1    2    0    0 +0.0000000000e+00 +0.0000000000e+00 +7.4614519367e+01 1.2021172417e+02 9.4252491360e+01 0.0000e+00 0.0000e+00
      -13  1    3    3    0    0 -2.1512825112e+01 +1.2245757351e+01 -1.3838966419e+01 2.8359781539e+01 0.0000000000e+00 0.0000e+00 -1.0000e+00
       13  1    3    3    0    0 +2.1512825112e+01 -1.2245757351e+01 +8.8453485786e+01 9.1851942631e+01 0.0000000000e+00 0.0000e+00 1.0000e+00
<mgrwt>
<rscale>  0 0.94252491E+02</rscale>
<asrwt>0</asrwt>
<pdfrwt beam="2">  1        4 0.35074773E-02 0.94252491E+02</pdfrwt>
<pdfrwt beam="1">  1       -4 0.14986634E-01 0.94252491E+02</pdfrwt>
<totfact> 0.23086706E+04</totfact>
</mgrwt>
</event>
<event>
 4      1 +1.6944000e+03 2.56689100e+01 7.81860800e-03 1.65157600e-01
       -2 -1    0    0    0  501 -0.0000000000e+00 +0.0000000000e+00 +2.9436854102e+00 2.9436854102e+00 0.0000000000e+00 0.0000e+00 -1.0000e+00
        2 -1    0    0  501    0 +0.0000000000e+00 -0.0000000000e+00 -5.5958167362e+01 5.5958167362e+01 0.0000000000e+00 0.0000e+00 1.0000e+00
      -13  1    1    2    0    0 -1.0800947447e+01 +6.8554291807e+00 -2.8876283160e+01 3.1583177549e+01 0.0000000000e+00 0.0000e+00 1.0000e+00
       13  1    1    2    0    0 +1.0800947447e+01 -6.8554291807e+00 -2.4138198792e+01 2.7318675223e+01 0.0000000000e+00 0.0000e+00 -1.0000e+00
<mgrwt>
<rscale>  0 0.25668910E+02</rscale>
<asrwt>0</asrwt>
<pdfrwt beam="2">  1        2 0.86089480E-02 0.25668910E+02</pdfrwt>
<pdfrwt beam="1">  1       -2 0.45287472E-03 0.25668910E+02</pdfrwt>
<totfact> 0.26732786E+06</totfact>
</mgrwt>
</event>
<event>
 5      1 +1.6944000e+03 9.24144800e+01 7.81860800e-03 1.29710800e-01
        2 -1    0    0  501    0 +0.0000000000e+00 +0.0000000000e+00 +1.8072724654e+02 1.8072724654e+02 0.0000000000e+00 0.0000e+00 -1.0000e+00
       -2 -1    0    0    0  501 -0.0000000000e+00 -0.0000000000e+00 -1.1813984645e+01 1.1813984645e+01 0.0000000000e+00 0.0000e+00 1.0000e+00
       23  2    1    2    0    0 +0.0000000000e+00 +0.0000000000e+00 +1.6891326190e+02 1.9254123119e+02 9.2414477558e+01 0.0000e+00 0.0000e+00
      -11  1    3    3    0    0 -3.1056494625e+01 -1.7176807475e+00 +1.5565016679e+02 1.5872753607e+02 0.0000000000e+00 0.0000e+00 -1.0000e+00
       11  1    3    3    0    0 +3.1056494625e+01 +1.7176807475e+00 +1.3263095108e+01 3.3813695116e+01 0.0000000000e+00 0.0000e+00 1.0000e+00
<mgrwt>
<rscale>  0 0.92414478E+02</rscale>
<asrwt>0</asrwt>
<pdfrwt beam="1">  1        2 0.27804190E-01 0.92414478E+02</pdfrwt>
<pdfrwt beam="2">  1       -2 0.18175362E-02 0.92414478E+02</pdfrwt>
<totfact> 0.14382033E+05</totfact>
</mgrwt>
</event>
<event>
 4      1 +1.6944000e+03 3.18394400e+01 7.81860800e-03 1.57860300e-01
       -2 -1    0    0    0  501 -0.0000000000e+00 +0.0000000000e+00 +1.0477903777e+02 1.0477903777e+02 0.0000000000e+00 0.0000e+00 1.0000e+00
        2 -1    0    0  501    0 +0.0000000000e+00 -0.0000000000e+00 -2.4187804584e+00 2.4187804584e+00 0.0000000000e+00 0.0000e+00 -1.0000e+00
      -13  1    1    2    0    0 +1.4121949823e+01 -5.8259974724e+00 +6.6261766175e+01 6.7999951250e+01 0.0000000000e+00 0.0000e+00 1.0000e+00
       13  1    1    2    0    0 -1.4121949823e+01 +5.8259974724e+00 +3.6098491137e+01 3.9197866979e+01 0.0000000000e+00 0.0000e+00 -1.0000e+00
<mgrwt>
<rscale>  0 0.31839440E+02</rscale>
<asrwt>0</asrwt>
<pdfrwt beam="2">  1        2 0.37212015E-03 0.31839440E+02</pdfrwt>
<pdfrwt beam="1">  1       -2 0.16119848E-01 0.31839440E+02</pdfrwt>
<totfact> 0.10266650E+06</totfact>
</mgrwt>
</event>
<event>
 4      1 +1.6944000e+03 2.31022100e+01 7.81860800e-03 1.68985900e-01
        2 -1    0    0  501    0 +0.0000000000e+00 +0.0000000000e+00 +3.4799488935e+01 3.4799488935e+01 0.0000000000e+00 0.0000e+00 -1.0000e+00
       -2 -1    0    0    0  501 -0.0000000000e+00 -0.0000000000e+00 -3.8341937434e+00 3.8341937434e+00 0.0000000000e+00 0.0000e+00 1.0000e+00
      -11  1    1    2    0    0 +8.5016673769e+00 +6.9496289946e+00 +9.4874578288e+00 1.4511634898e+01 0.0000000000e+00 0.0000e+00 1.0000e+00
       11  1    1    2    0    0 -8.5016673769e+00 -6.9496289946e+00 +2.1477837363e+01 2.4122047781e+01 0.0000000000e+00 0.0000e+00 -1.0000e+00
<mgrwt>
<rscale>  0 0.23102206E+02</rscale>
<asrwt>0</asrwt>
<pdfrwt beam="1">  1        2 0.53537673E-02 0.23102206E+02</pdfrwt>
<pdfrwt beam="2">  1       -2 0.58987598E-03 0.23102206E+02</pdfrwt>
<totfact> 0.31811634E+06</totfact>
</mgrwt>
</event>
<event>
 5      1 +1.6944000e+03 9.54175500e+01 7.81860800e-03 1.29023800e-01
       -4 -1    0    0    0  501 -0.0000000000e+00 +0.0000000000e+00 +2.9673631507e+02 2.9673631507e+02 0.0000000000e+00 0.0000e+00 1.0000e+00
        4 -1    0    0  501    0 +0.0000000000e+00 -0.0000000000e+00 -7.6705373973e+00 7.6705373973e+00 0.0000000000e+00 0.0000e+00 -1.0000e+00
       23  2    1    2    0    0 +0.0000000000e+00 +0.0000000000e+00 +2.8906577767e+02 3.0440685246e+02 9.5417545595e+01 0.0000e+00 0.0000e+00
      -13  1    3    3    0    0 -3.6997248463e+01 +1.2847062034e+01 +2.3145116764e+02 2.3474131804e+02 0.0000000000e+00 0.0000e+00 1.0000e+00
       13  1    3    3    0    0 +3.6997248463e+01 -1.2847062034e+01 +5.7614610032e+01 6.9665534419e+01 0.0000000000e+00 0.0000e+00 -1.0000e+00
<mgrwt>
<rscale>  0 0.95417546E+02</rscale>
<asrwt>0</asrwt>
<pdfrwt beam="2">  1        4 0.11800829E-02 0.95417546E+02</pdfrwt>
<pdfrwt beam="1">  1       -4 0.45651732E-01 0.95417546E+02</pdfrwt>
<totfact> 0.15665252E+04</totfact>
</mgrwt>
</event>
<event>
 5      1 +1.6944000e+03 1.09924300e+02 7.81860800e-03 1.26071000e-01
        3 -1    0    0  501    0 +0.0000000000e+00 +0.0000000000e+00 +1.0000555544e+01 1.0000555544e+01 0.0000000000e+00 0.0000e+00 1.0000e+00
       -3 -1    0    0    0  501 -0.0000000000e+00 -0.0000000000e+00 -3.0206712657e+02 3.0206712657e+02 0.0000000000e+00 0.0000e+00 -1.0000e+00
       23  2    1    2    0    0 +0.0000000000e+00 +0.0000000000e+00 -2.9206657102e+02 3.1206768211e+02 1.0992432083e+02 0.0000e+00 0.0000e+00
      -13  1    3    3    0    0 -3.2303838472e+01 -2.8165956265e+01 -2.4371812974e+02 2.4745784658e+02 0.0000000000e+00 0.0000e+00 -1.0000e+00
       13  1    3    3    0    0 +3.2303838472e+01 +2.8165956265e+01 -4.8348441287e+01 6.4609835530e+01 0.0000000000e+00 0.0000e+00 1.0000e+00
<mgrwt>
<rscale>  0 0.10992432E+03</rscale>
<asrwt>0</asrwt>
<pdfrwt beam="1">  1        3 0.15385471E-02 0.10992432E+03</pdfrwt>
<pdfrwt beam="2">  1       -3 0.46471862E-01 0.10992432E+03</pdfrwt>
<totfact> 0.14187864E+04</totfact>
</mgrwt>
</event>
<event>
 5      1 +1.6944000e+03 8.87065500e+01 7.81860800e-03 1.30601500e-01
       -1 -1    0    0    0  501 -0.0000000000e+00 +0.0000000000e+00 +3.5148035087e+02 3.5148035087e+02 0.0000000000e+00 0.0000e+00 1.0000e+00
        1 -1    0    0  501    0 +0.0000000000e+00 -0.0000000000e+00 -5.5969359727e+00 5.5969359727e+00 0.0000000000e+00 0.0000e+00 -1.0000e+00
       23  2    1    2    0    0 +0.0000000000e+00 +0.0000000000e+00 +3.4588341490e+02 3.5707728685e+02 8.8706550367e+01 0.0000e+00 0.0000e+00
      -11  1    3    3    0    0 -4.2530156127e+01 +9.6494604239e+00 +2.0546683962e+02 2.1004415833e+02 0.0000000000e+00 0.0000e+00 1.0000e+00
       11  1    3    3    0    0 +4.2530156127e+01 -9.6494604239e+00 +1.4041657529e+02 1.4703312852e+02 0.0000000000e+00 0.0000e+00 -1.0000e+00
<mgrwt>
<rscale>  0 0.88706550E+02</rscale>
<asrwt>0</asrwt>
<pdfrwt beam="2">  1        1 0.86106735E-03 0.88706550E+02</pdfrwt>
<pdfrwt beam="1">  1       -1 0.54073883E-01 0.88706550E+02</pdfrwt>
<totfact> 0.60898769E+04</totfact>
</mgrwt>
</event>
<event>
 5      1 +1.6944000e+03 9.05691100e+01 7.81860800e-03 1.30147900e-01
        1 -1    0    0  501    0 +0.0000000000e+00 +0.0000000000e+00 +4.2409491193e+01 4.2409491193e+01 0.0000000000e+00 0.0000e+00 -1.0000e+00
       -1 -1    0    0    0  501 -0.0000000000e+00 -0.0000000000e+00 -4.8354532933e+01 4.8354532933e+01 0.0000000000e+00 0.0000e+00 1.0000e+00
       23  2    1    2    0    0 +0.0000000000e+00 +0.0000000000e+00 -5.9450417396e+00 9.0764024127e+01 9.0569114793e+01 0.0000e+00 0.0000e+00
      -13  1    3    3    0    0 +1.3118455660e+01 -1.5627967876e+01 -4.3486788938e+01 4.8035695800e+01 0.0000000000e+00 0.0000e+00 1.0000e+00
       13  1    3    3    0    0 -1.3118455660e+01 +1.5627967876e+01 +3.7541747199e+01 4.2728328326e+01 0.0000000000e+00 0.0000e+00 -1.0000e+00
<mgrwt>
<rscale>  0 0.90569115E+02</rscale>
<asrwt>0</asrwt>
<pdfrwt beam="1">  1        1 0.65245372E-02 0.90569115E+02</pdfrwt>
<pdfrwt beam="2">  1       -1 0.74391588E-02 0.90569115E+02</pdfrwt>
<totfact> 0.93208011E+04</totfact>
</mgrwt>
</event>
<event>
 5      1 +1.6944000e+03 8.78076400e+01 7.81860800e-03 1.30824900e-01
        1 -1    0    0  501    0 +0.0000000000e+00 +0.0000000000e+00 +1.3409621901e+02 1.3409621901e+02 0.0000000000e+00 0.0000e+00 -1.0000e+00
       -1 -1    0    0    0  501 -0.0000000000e+00 -0.0000000000e+00 -1.4374346636e+01 1.4374346636e+01 0.0000000000e+00 0.0000e+00 1.0000e+00
       23  2    1    2    0    0 +0.0000000000e+00 +0.0000000000e+00 +1.1972187237e+02 1.4847056564e+02 8.7807642823e+01 0.0000e+00 0.0000e+00
      -11  1    3    3    0    0 -3.2894172073e+01 -2.1292745846e+01 +9.3344176728e+01 1.0123508735e+02 0.0000000000e+00 0.0000e+00 -1.0000e+00
       11  1    3    3    0    0 +3.2894172073e+01 +2.1292745846e+01 +2.6377695646e+01 4.7235478293e+01 0.0000000000e+00 0.0000e+00 1.0000e+00
<mgrwt>
<rscale>  0 0.87807643E+02</rscale>
<asrwt>0</asrwt>
<pdfrwt beam="1">  1        1 0.20630187E-01 0.87807643E+02</pdfrwt>
<pdfrwt beam="2">  1       -1 0.22114380E-02 0.87807643E+02</pdfrwt>
<totfact> 0.12161598E+05</totfact>
</mgrwt>
</event>
<event>
 5      1 +1.6944000e+03 9.22117100e+01 7.81860800e-03 1.29758200e-01
        1 -1    0    0  501    0 +0.0000000000e+00 +0.0000000000e+00 +4.0348770477e+02 4.0348770477e+02 0.0000000000e+00 0.0000e+00 -1.0000e+00
       -1 -1    0    0    0  501 -0.0000000000e+00 -0.0000000000e+00 -5.2684377895e+00 5.2684377895e+00 0.0000000000e+00 0.0000e+00 1.0000e+00
       23  2    1    2    0    0 +0.0000000000e+00 +0.0000000000e+00 +3.9821926698e+02 4.0875614256e+02 9.2211710132e+01 0.0000e+00 0.0000e+00
      -11  1    3    3    0    0 -4.3589116961e+01 +1.2710840726e+01 +2.3462001524e+02 2.3897306991e+02 0.0000000000e+00 0.0000e+00 1.0000e+00
       11  1    3    3    0    0 +4.3589116961e+01 -1.2710840726e+01 +1.6359925174e+02 1.6978307265e+02 0.0000000000e+00 0.0000e+00 -1.0000e+00
<mgrwt>
<rscale>  0 0.92211710E+02</rscale>
<asrwt>0</asrwt>
<pdfrwt beam="1">  1        1 0.62075007E-01 0.92211710E+02</pdfrwt>
<pdfrwt beam="2">  1       -1 0.81052921E-03 0.92211710E+02</pdfrwt>
<totfact> 0.13109068E+05</totfact>
</mgrwt>
</event>
<event>
 5      1 +1.6944000e+03 8.92404600e+01 7.81860800e-03 1.30470200e-01
       -2 -1    0    0    0  501 -0.0000000000e+00 +0.0000000000e+00 +1.5670344006e+01 1.5670344006e+01 0.0000000000e+00 0.0000e+00 -1.0000e+00
        2 -1    0    0  501    0 +0.0000000000e+00 -0.0000000000e+00 -1.2705303727e+02 1.2705303727e+02 0.0000000000e+00 0.0000e+00 1.0000e+00
       23  2    1    2    0    0 +0.0000000000e+00 +0.0000000000e+00 -1.1138269326e+02 1.4272338128e+02 8.9240457216e+01 0.0000e+00 0.0000e+00
      -11  1    3    3    0    0 -6.1810259078e+00 +3.8056846815e+01 -9.1611355241e+01 9.9394009275e+01 0.0000000000e+00 0.0000e+00 1.0000e+00
       11  1    3    3    0    0 +6.1810259078e+00 -3.8056846815e+01 -1.9771338022e+01 4.3329372000e+01 0.0000000000e+00 0.0000e+00 -1.0000e+00
<mgrwt>
<rscale>  0 0.89240457E+02</rscale>
<asrwt>0</asrwt>
<pdfrwt beam="2">  1        2 0.19546620E-01 0.89240457E+02</pdfrwt>
<pdfrwt beam="1">  1       -2 0.24108222E-02 0.89240457E+02</pdfrwt>
<totfact> 0.14024649E+05</totfact>
</mgrwt>
</event>
<event>
 5      1 +1.6944000e+03 9.56804700e+01 7.81860800e-03 1.28965100e-01
       -2 -1    0    0    0  501 -0.0000000000e+00 +0.0000000000e+00 +9.2485339398e+00 9.2485339398e+00 0.0000000000e+00 0.0000e+00 1.0000e+00
        2 -1    0    0  501    0 +0.0000000000e+00 -0.0000000000e+00 -2.4746496069e+02 2.4746496069e+02 0.0000000000e+00 0.0000e+00 -1.0000e+00
       23  2    1    2    0    0 +0.0000000000e+00 +0.0000000000e+00 -2.3821642675e+02 2.5671349463e+02 9.5680470062e+01 0.0000e+00 0.0000e+00
      -11  1    3    3    0    0 +3.1737082891e+01 +2.3089164072e+01 -1.9250444524e+02 1.9646453463e+02 0.0000000000e+00 0.0000e+00 -1.0000e+00
       11  1    3    3    0    0 -3.1737082891e+01 -2.3089164072e+01 -4.5711981505e+01 6.0248960000e+01 0.0000000000e+00 0.0000e+00 1.0000e+00
<mgrwt>
<rscale>  0 0.95680470E+02</rscale>
<asrwt>0</asrwt>
<pdfrwt beam="2">  1        2 0.38071528E-01 0.95680470E+02</pdfrwt>
<pdfrwt beam="1">  1       -2 0.14228515E-02 0.95680470E+02</pdfrwt>
<totfact> 0.14690326E+05</totfact>
</mgrwt>
</event>
<event>
 4      1 +1.6944000e+03 2.21450100e+01 7.81860800e-03 1.70575600e-01
       -1 -1    0    0    0  501 -0.0000000000e+00 +0.0000000000e+00 +4.0753629355e+00 4.0753629355e+00 0.0000000000e+00 0.0000e+00 -1.0000e+00
        1 -1    0    0  501    0 +0.0000000000e+00 -0.0000000000e+00 -3.0083291522e+01 3.0083291522e+01 0.0000000000e+00 0.0000e+00 1.0000e+00
      -11  1    1    2    0    0 +4.4016824141e-01 +1.1062390400e+01 -1.2736342634e+01 1.6875563787e+01 0.0000000000e+00 0.0000e+00 -1.0000e+00
       11  1    1    2    0    0 -4.4016824141e-01 -1.1062390400e+01 -1.3271585953e+01 1.7283090671e+01 0.0000000000e+00 0.0000e+00 1.0000e+00
<mgrwt>
<rscale>  0 0.22145007E+02</rscale>
<asrwt>0</asrwt>
<pdfrwt beam="2">  1        1 0.46281988E-02 0.22145007E+02</pdfrwt>
<pdfrwt beam="1">  1       -1 0.62697890E-03 0.22145007E+02</pdfrwt>
<totfact> 0.32154419E+06</totfact>
</mgrwt>
</event>
<event>
 5      1 +1.6944000e+03 9.14296400e+01 7.81860800e-03 1.29942600e-01
        2 -1    0    0  501    0 +0.0000000000e+00 +0.0000000000e+00 +6.2011626404e+00 6.2011626404e+00 0.0000000000e+00 0.0000e+00 -1.0000e+00
       -2 -1    0    0    0  501 -0.0000000000e+00 -0.0000000000e+00 -3.3700853391e+02 3.3700853391e+02 0.0000000000e+00 0.0000e+00 1.0000e+00
       23  2    1    2    0    0 +0.0000000000e+00 +0.0000000000e+00 -3.3080737127e+02 3.4320969656e+02 9.1429639177e+01 0.0000e+00 0.0000e+00
      -13  1    3    3    0    0 -1.1074387341e+01 +4.3558671200e+01 -1.9677550470e+02 2.0184300617e+02 0.0000000000e+00 0.0000e+00 -1.0000e+00
       13  1    3    3    0    0 +1.1074387341e+01 -4.3558671200e+01 -1.3403186657e+02 1.4136669038e+02 0.0000000000e+00 0.0000e+00 1.0000e+00
<mgrwt>
<rscale>  0 0.91429639E+02</rscale>
<asrwt>0</asrwt>
<pdfrwt beam="1">  1        2 0.95402494E-03 0.91429639E+02</pdfrwt>
<pdfrwt beam="2">  1       -2 0.51847471E-01 0.91429639E+02</pdfrwt>
<totfact> 0.47311042E+04</totfact>
</mgrwt>
</event>
<event>
 5      1 +1.6944000e+03 9.23910500e+01 7.81860800e-03 1.29716300e-01
        2 -1    0    0  501    0 +0.0000000000e+00 +0.0000000000e+00 +2.9369421999e+01 2.9369421999e+01 0.0000000000e+00 0.0000e+00 -1.0000e+00
       -2 -1    0    0    0  501 -0.0000000000e+00 -0.0000000000e+00 -7.2661503895e+01 7.2661503895e+01 0.0000000000e+00 0.0000e+00 1.0000e+00
       23  2    1    2    0    0 +0.0000000000e+00 +0.0000000000e+00 -4.3292081896e+01 1.0203092589e+02 9.2391046556e+01 0.0000e+00 0.0000e+00
      -11  1    3    3    0    0 -3.0159279003e+01 +2.6931819818e+01 -4.6318078160e+01 6.1483895397e+01 0.0000000000e+00 0.0000e+00 -1.0000e+00
       11  1    3    3    0    0 +3.0159279003e+01 -2.6931819818e+01 +3.0259962640e+00 4.0547030497e+01 0.0000000000e+00 0.0000e+00 1.0000e+00
<mgrwt>
<rscale>  0 0.92391047E+02</rscale>
<asrwt>0</asrwt>
<pdfrwt beam="1">  1        2 0.45183726E-02 0.92391047E+02</pdfrwt>
<pdfrwt beam="2">  1       -2 0.11178693E-01 0.92391047E+02</pdfrwt>
<totfact> 0.84562856E+04</totfact>
</mgrwt>
</event>
<event>
 5      1 +1.6944000e+03 8.39297600e+01 7.81860800e-03 1.31825500e-01
       -1 -1    0    0    0  501 -0.0000000000e+00 +0.0000000000e+00 +8.6380172092e+00 8.6380172092e+00 0.0000000000e+00 0.0000e+00 1.0000e+00
        1 -1    0    0  501    0 +0.0000000000e+00 -0.0000000000e+00 -2.0387214952e+02 2.0387214952e+02 0.0000000000e+00 0.0000e+00 -1.0000e+00
       23  2    1    2    0    0 +0.0000000000e+00 +0.0000000000e+00 -1.9523413231e+02 2.1251016673e+02 8.3929759585e+01 0.0000e+00 0.0000e+00
      -13  1    3    3    0    0 -1.9311685359e+01 -2.7321603254e+01 -3.3479950108e+01 4.7332000328e+01 0.0000000000e+00 0.0000e+00 1.0000e+00
       13  1    3    3    0    0 +1.9311685359e+01 +2.7321603254e+01 -1.6175418220e+02 1.6517816640e+02 0.0000000000e+00 0.0000e+00 -1.0000e+00
<mgrwt>
<rscale>  0 0.83929760E+02</rscale>
<asrwt>0</asrwt>
<pdfrwt beam="2">  1        1 0.31364947E-01 0.83929760E+02</pdfrwt>
<pdfrwt beam="1">  1       -1 0.13289257E-02 0.83929760E+02</pdfrwt>
<totfact> 0.14822698E+05</totfact>
</mgrwt>
</event>
<event>
 5      1 +1.6944000e+03 9.24190800e+01 7.81860800e-03 1.29709700e-01
        2 -1    0    0  501    0 +0.0000000000e+00 +0.0000000000e+00 +4.4958839449e+02 4.4958839449e+02 0.0000000000e+00 0.0000e+00 -1.0000e+00
       -2 -1    0    0    0  501 -0.0000000000e+00 -0.0000000000e+00 -4.7495030603e+00 4.7495030603e+00 0.0000000000e+00 0.0000e+00 1.0000e+00
       23  2    1    2    0    0 +0.0000000000e+00 +0.0000000000e+00 +4.4483889143e+02 4.5433789755e+02 9.2419077155e+01 0.0000e+00 0.0000e+00
      -11  1    3    3    0    0 +3.7801678885e+01 -2.5728025060e+01 +2.5518537786e+02 2.5924983177e+02 0.0000000000e+00 0.0000e+00 1.0000e+00
       11  1    3    3    0    0 -3.7801678885e+01 +2.5728025060e+01 +1.8965351357e+02 1.9508806578e+02 0.0000000000e+00 0.0000e+00 -1.0000e+00
<mgrwt>
<rscale>  0 0.92419077E+02</rscale>
<asrwt>0</asrwt>
<pdfrwt beam="1">  1        2 0.69167412E-01 0.92419077E+02</pdfrwt>
<pdfrwt beam="2">  1       -2 0.73069313E-03 0.92419077E+02</pdfrwt>
<totfact> 0.20063911E+05</totfact>
</mgrwt>
</event>
<event>
 4      1 +1.6944000e+03 2.17049900e+01 7.81860800e-03 1.71340500e-01
       -4 -1    0    0    0  501 -0.0000000000e+00 +0.0000000000e+00 +3.9456878599e+00 3.9456878599e+00 0.0000000000e+00 0.0000e+00 -1.0000e+00
        4 -1    0    0  501    0 +0.0000000000e+00 -0.0000000000e+00 -2.9849447671e+01 2.9849447671e+01 0.0000000000e+00 0.0000e+00 1.0000e+00
      -13  1    1    2    0    0 -1.0349058868e+01 -3.5471475021e-01 -1.8008668881e+01 2.0773564858e+01 0.0000000000e+00 0.0000e+00 1.0000e+00
       13  1    1    2    0    0 +1.0349058868e+01 +3.5471475021e-01 -7.8950909293e+00 1.3021570673e+01 0.0000000000e+00 0.0000e+00 -1.0000e+00
<mgrwt>
<rscale>  0 0.21704986E+02</rscale>
<asrwt>0</asrwt>
<pdfrwt beam="2">  1        4 0.45922227E-02 0.21704986E+02</pdfrwt>
<pdfrwt beam="1">  1       -4 0.60702890E-03 0.21704986E+02</pdfrwt>
<totfact> 0.10359892E+06</totfact>
</mgrwt>
</event>
<event>
 5      1 +1.6944000e+03 9.04364400e+01 7.81860800e-03 1.30179800e-01
       -1 -1    0    0    0  501 -0.0000000000e+00 +0.0000000000e+00 +1.1298372087e+02 1.1298372087e+02 0.0000000000e+00 0.0000e+00 1.0000e+00
        1 -1    0    0  501    0 +0.0000000000e+00 -0.0000000000e+00 -1.8097185843e+01 1.8097185843e+01 0.0000000000e+00 0.0000e+00 -1.0000e+00
       23  2    1    2    0    0 +0.0000000000e+00 +0.0000000000e+00 +9.4886535023e+01 1.3108090671e+02 9.0436439422e+01 0.0000e+00 0.0000e+00
      -11  1    3    3    0    0 +1.7209037799e+01 -4.1786501531e+01 +4.9700234111e+01 6.7174220970e+01 0.0000000000e+00 0.0000e+00 -1.0000e+00
       11  1    3    3    0    0 -1.7209037799e+01 +4.1786501531e+01 +4.5186300912e+01 6.3906685740e+01 0.0000000000e+00 0.0000e+00 1.0000e+00
<mgrwt>
<rscale>  0 0.90436439E+02</rscale>
<asrwt>0</asrwt>
<pdfrwt beam="2">  1        1 0.27841825E-02 0.90436439E+02</pdfrwt>
<pdfrwt beam="1">  1       -1 0.17382111E-01 0.90436439E+02</pdfrwt>
<totfact> 0.81178017E+04</totfact>
</mgrwt>
</event>
<event>
 4      1 +1.6944000e+03 7.67001900e+01 7.81860800e-03 1.33868500e-01
       -1 -1    0    0    0  501 -0.0000000000e+00 +0.0000000000e+00 +4.7150319855e+00 4.7150319855e+00 0.0000000000e+00 0.0000e+00 1.0000e+00
        1 -1    0    0  501    0 +0.0000000000e+00 -0.0000000000e+00 -3.1192360410e+02 3.1192360410e+02 0.0000000000e+00 0.0000e+00 -1.0000e+00
      -11  1    1    2    0    0 -2.5739136049e+00 -3.7424030347e+01 -1.2069534244e+02 1.2639046152e+02 0.0000000000e+00 0.0000e+00 1.0000e+00
       11  1    1    2    0    0 +2.5739136049e+00 +3.7424030347e+01 -1.8651322968e+02 1.9024817457e+02 0.0000000000e+00 0.0000e+00 -1.0000e+00
<mgrwt>
<rscale>  0 0.76700190E+02</rscale>
<asrwt>0</asrwt>
<pdfrwt beam="2">  1        1 0.47988254E-01 0.76700190E+02</pdfrwt>
<pdfrwt beam="1">  1       -1 0.72538943E-03 0.76700190E+02</pdfrwt>
<totfact> 0.20369268E+05</totfact>
</mgrwt>
</event>
<event>
 5      1 +1.6944000e+03 9.17315100e+01 7.81860800e-03 1.29871200e-01
       -2 -1    0    0    0  501 -0.0000000000e+00 +0.0000000000e+00 +6.1459513370e+00 6.1459513370e+00 0.0000000000e+00 0.0000e+00 1.0000e+00
        2 -1    0    0  501    0 +0.0000000000e+00 -0.0000000000e+00 -3.4228511931e+02 3.4228511931e+02 0.0000000000e+00 0.0000e+00 -1.0000e+00
       23  2    1    2    0    0 +0.0000000000e+00 +0.0000000000e+00 -3.3613916797e+02 3.4843107064e+02 9.1731514468e+01 0.0000e+00 0.0000e+00
      -11  1    3    3    0    0 +1.0446366045e+01 -4.1599387872e+01 -1.0634948172e+02 1.1467278621e+02 0.0000000000e+00 0.0000e+00 1.0000e+00
       11  1    3    3    0    0 -1.0446366045e+01 +4.1599387872e+01 -2.2978968626e+02 2.3375828444e+02 0.0000000000e+00 0.0000e+00 -1.0000e+00
<mgrwt>
<rscale>  0 0.91731514E+02</rscale>
<asrwt>0</asrwt>
<pdfrwt beam="2">  1        2 0.52659269E-01 0.91731514E+02</pdfrwt>
<pdfrwt beam="1">  1       -2 0.94553062E-03 0.91731514E+02</pdfrwt>
<totfact> 0.18562526E+05</totfact>
</mgrwt>
</event>
<event>
 4      1 +1.6944000e+03 3.18839300e+01 7.81860800e-03 1.57815200e-01
        2 -1    0    0  501    0 +0.0000000000e+00 +0.0000000000e+00 +3.9644042642e+00 3.9644042642e+00 0.0000000000e+00 0.0000e+00 1.0000e+00
       -2 -1    0    0    0  501 -0.0000000000e+00 -0.0000000000e+00 -6.4107041998e+01 6.4107041998e+01 0.0000000000e+00 0.0000e+00 -1.0000e+00
      -11  1    1    2    0    0 -4.1121735957e+00 -1.5346792802e+01 -3.2864966440e+01 3.6503972935e+01 0.0000000000e+00 0.0000e+00 -1.0000e+00
       11  1    1    2    0    0 +4.1121735957e+00 +1.5346792802e+01 -2.7277671294e+01 3.1567473326e+01 0.0000000000e+00 0.0000e+00 1.0000e+00
<mgrwt>
<rscale>  0 0.31883929E+02</rscale>
<asrwt>0</asrwt>
<pdfrwt beam="1">  1        2 0.60990836E-03 0.31883929E+02</pdfrwt>
<pdfrwt beam="2">  1       -2 0.98626217E-02 0.31883929E+02</pdfrwt>
<totfact> 0.11351431E+06</totfact>
</mgrwt>
</event>
<event>
 5      1 +1.6944000e+03 9.27865800e+01 7.81860800e-03 1.29624100e-01
        2 -1    0    0  501    0 +0.0000000000e+00 +0.0000000000e+00 +2.6245267046e+02 2.6245267046e+02 0.0000000000e+00 0.0000e+00 -1.0000e+00
       -2 -1    0    0    0  501 -0.0000000000e+00 -0.0000000000e+00 -8.2008589426e+00 8.2008589426e+00 0.0000000000e+00 0.0000e+00 1.0000e+00
       23  2    1    2    0    0 +0.0000000000e+00 +0.0000000000e+00 +2.5425181152e+02 2.7065352940e+02 9.2786579408e+01 0.0000e+00 0.0000e+00
      -11  1    3    3    0    0 +1.5986095638e+01 +3.2116229263e+01 +4.1319564612e+01 5.4720323971e+01 0.0000000000e+00 0.0000e+00 1.0000e+00
       11  1    3    3    0    0 -1.5986095638e+01 -3.2116229263e+01 +2.1293224690e+02 2.1593320543e+02 0.0000000000e+00 0.0000e+00 -1.0000e+00
<mgrwt>
<rscale>  0 0.92786579E+02</rscale>
<asrwt>0</asrwt>
<pdfrwt beam="1">  1        2 0.40377327E-01 0.92786579E+02</pdfrwt>
<pdfrwt beam="2">  1       -2 0.12616708E-02 0.92786579E+02</pdfrwt>
<totfact> 0.16308841E+05</totfact>
</mgrwt>
</event>
<event>
 4      1 +1.6944000e+03 2.31101000e+01 7.81860800e-03 1.68973200e-01
       -4 -1    0    0    0  501 -0.0000000000e+00 +0.0000000000e+00 +6.1303551342e+00 6.1303551342e+00 0.0000000000e+00 0.0000e+00 -1.0000e+00
        4 -1    0    0  501    0 +0.0000000000e+00 -0.0000000000e+00 -2.1780016387e+01 2.1780016387e+01 0.0000000000e+00 0.0000e+00 1.0000e+00
      -11  1    1    2    0    0 -7.1087321152e+00 -7.4611431861e+00 -1.5126957102e+00 1.0415900261e+01 0.0000000000e+00 0.0000e+00 1.0000e+00
       11  1    1    2    0    0 +7.1087321152e+00 +7.4611431861e+00 -1.4136965542e+01 1.7494471260e+01 0.0000000000e+00 0.0000e+00 -1.0000e+00
<mgrwt>
<rscale>  0 0.23110105E+02</rscale>
<asrwt>0</asrwt>
<pdfrwt beam="2">  1        4 0.33507717E-02 0.23110105E+02</pdfrwt>
<pdfrwt beam="1">  1       -4 0.94313158E-03 0.23110105E+02</pdfrwt>
<totfact> 0.92999254E+05</totfact>
</mgrwt>
</event>
<event>
 5      1 +1.6944000e+03 9.08199900e+01 7.81860800e-03 1.30087800e-01
        1 -1    0    0  501    0 +0.0000000000e+00 +0.0000000000e+00 +5.7834810791e+01 5.7834810791e+01 0.0000000000e+00 0.0000e+00 -1.0000e+00
       -1 -1    0    0    0  501 -0.0000000000e+00 -0.0000000000e+00 -3.5654434446e+01 3.5654434446e+01 0.0000000000e+00 0.0000e+00 1.0000e+00
       23  2    1    2    0    0 +0.0000000000e+00 +0.0000000000e+00 +2.2180376345e+01 9.3489245237e+01 9.0819986128e+01 0.0000e+00 0.0000e+00
      -11  1    3    3    0    0 +3.0308238772e+01 +2.3571297984e+01 +3.6048868945e+01 5.2666083758e+01 0.0000000000e+00 0.0000e+00 -1.0000e+00
       11  1    3    3    0    0 -3.0308238772e+01 -2.3571297984e+01 -1.3868492601e+01 4.0823161479e+01 0.0000000000e+00 0.0000e+00 1.0000e+00
<mgrwt>
<rscale>  0 0.90819986E+02</rscale>
<asrwt>0</asrwt>
<pdfrwt beam="1">  1        1 0.88976632E-02 0.90819986E+02</pdfrwt>
<pdfrwt beam="2">  1       -1 0.54852976E-02 0.90819986E+02</pdfrwt>
<totfact> 0.96886752E+04</totfact>
</mgrwt>
</event>
<event>
 5      1 +1.6944000e+03 8.86233300e+01 7.81860800e-03 1.30622000e-01
        4 -1    0    0  501    0 +0.0000000000e+00 +0.0000000000e+00 +2.8174495722e+01 2.8174495722e+01 0.0000000000e+00 0.0000e+00 1.0000e+00
       -4 -1    0    0    0  501 -0.0000000000e+00 -0.0000000000e+00 -6.9691520486e+01 6.9691520486e+01 0.0000000000e+00 0.0000e+00 -1.0000e+00
       23  2    1    2    0    0 +0.0000000000e+00 +0.0000000000e+00 -4.1517024764e+01 9.7866016209e+01 8.8623325278e+01 0.0000e+00 0.0000e+00
      -11  1    3    3    0    0 +2.3430782924e+01 -1.5545389096e+01 +1.7060263075e+01 3.2889409949e+01 0.0000000000e+00 0.0000e+00 1.0000e+00
       11  1    3    3    0    0 -2.3430782924e+01 +1.5545389096e+01 -5.8577287838e+01 6.4976606260e+01 0.0000000000e+00 0.0000e+00 -1.0000e+00
<mgrwt>
<rscale>  0 0.88623325E+02</rscale>
<asrwt>0</asrwt>
<pdfrwt beam="1">  1        4 0.43345379E-02 0.88623325E+02</pdfrwt>
<pdfrwt beam="2">  1       -4 0.10721772E-01 0.88623325E+02</pdfrwt>
<totfact> 0.28711705E+04</totfact>
</mgrwt>
</event>
<event>
 5      1 +1.6944000e+03 9.02790700e+01 7.81860800e-03 1.30217700e-01
       -2 -1    0    0    0  501 -0.0000000000e+00 +0.0000000000e+00 +2.8514375329e+02 2.8514375329e+02 0.0000000000e+00 0.0000e+00 1.0000e+00
        2 -1    0    0  501    0 +0.0000000000e+00 -0.0000000000e+00 -7.1457915328e+00 7.1457915328e+00 0.0000000000e+00 0.0000e+00 -1.0000e+00
       23  2    1    2    0    0 +0.0000000000e+00 +0.0000000000e+00 +2.7799796175e+02 2.9228954482e+02 9.0279074383e+01 0.0000e+00 0.0000e+00
      -11  1    3    3    0    0 +2.9914453202e+01 +2.3874415610e+01 +6.1517897482e+01 7.2452149324e+01 0.0000000000e+00 0.0000e+00 -1.0000e+00
       11  1    3    3    0    0 -2.9914453202e+01 -2.3874415610e+01 +2.1648006427e+02 2.1983739550e+02 0.0000000000e+00 0.0000e+00 1.0000e+00
<mgrwt>
<rscale>  0 0.90279074E+02</rscale>
<asrwt>0</asrwt>
<pdfrwt beam="2">  1        2 0.10993528E-02 0.90279074E+02</pdfrwt>
<pdfrwt beam="1">  1       -2 0.43868261E-01 0.90279074E+02</pdfrwt>
<totfact> 0.53805904E+04</totfact>
</mgrwt>
</event>
<event>
 5      1 +1.6944000e+03 9.12598000e+01 7.81860800e-03 1.29982900e-01
       -2 -1    0    0    0  501 -0.0000000000e+00 +0.0000000000e+00 +9.5272810807e+00 9.5272810807e+00 0.0000000000e+00 0.0000e+00 1.0000e+00
        2 -1    0    0  501    0 +0.0000000000e+00 -0.0000000000e+00 -2.1853953835e+02 2.1853953835e+02 0.0000000000e+00 0.0000e+00 -1.0000e+00
       23  2    1    2    0    0 +0.0000000000e+00 +0.0000000000e+00 -2.0901225727e+02 2.2806681943e+02 9.1259796386e+01 0.0000e+00 0.0000e+00
      -11  1    3    3    0    0 +3.1089672184e+01 -3.0854063289e+01 -7.2546371900e+01 8.4743831715e+01 0.0000000000e+00 0.0000e+00 -1.0000e+00
       11  1    3    3    0    0 -3.1089672184e+01 +3.0854063289e+01 -1.3646588537e+02 1.4332298772e+02 0.0000000000e+00 0.0000e+00 1.0000e+00
<mgrwt>
<rscale>  0 0.91259796E+02</rscale>
<asrwt>0</asrwt>
<pdfrwt beam="2">  1        2 0.33621466E-01 0.91259796E+02</pdfrwt>
<pdfrwt beam="1">  1       -2 0.14657356E-02 0.91259796E+02</pdfrwt>
<totfact> 0.15936012E+05</totfact>
</mgrwt>
</event>
<event>
 5      1 +1.6944000e+03 1.12278700e+02 7.81860800e-03 1.25640700e-01
        2 -1    0    0  501    0 +0.0000000000e+00 +0.0000000000e+00 +1.2654844112e+02 1.2654844112e+02 0.0000000000e+00 0.0000e+00 -1.0000e+00
       -2 -1    0    0    0  501 -0.0000000000e+00 -0.0000000000e+00 -2.4904492867e+01 2.4904492867e+01 0.0000000000e+00 0.0000e+00 1.0000e+00
       23  2    1    2    0    0 +0.0000000000e+00 +0.0000000000e+00 +1.0164394825e+02 1.5145293398e+02 1.1227866670e+02 0.0000e+00 0.0000e+00
      -13  1    3    3    0    0 -4.8816624976e+01 +1.7620353269e+01 +2.1951528198e+01 5.6350770302e+01 0.0000000000e+00 0.0000e+00 1.0000e+00
       13  1    3    3    0    0 +4.8816624976e+01 -1.7620353269e+01 +7.9692420051e+01 9.5102163682e+01 0.0000000000e+00 0.0000e+00 -1.0000e+00
<mgrwt>
<rscale>  0 0.11227867E+03</rscale>
<asrwt>0</asrwt>
<pdfrwt beam="1">  1        2 0.19468991E-01 0.11227867E+03</pdfrwt>
<pdfrwt beam="2">  1       -2 0.38314605E-02 0.11227867E+03</pdfrwt>
<totfact> 0.74203546E+04</totfact>
</mgrwt>
</event>
<event>
 5      1 +1.6944000e+03 9.01036300e+01 7.81860800e-03 1.30260100e-01
       -3 -1    0    0    0  501 -0.0000000000e+00 +0.0000000000e+00 +2.5751954618e+02 2.5751954618e+02 0.0000000000e+00 0.0000e+00 1.0000e+00
        3 -1    0    0  501    0 +0.0000000000e+00 -0.0000000000e+00 -7.8815998557e+00 7.8815998557e+00 0.0000000000e+00 0.0000e+00 -1.0000e+00
       23  2    1    2    0    0 +0.0000000000e+00 +0.0000000000e+00 +2.4963794632e+02 2.6540114603e+02 9.0103629627e+01 0.0000e+00 0.0000e+00
      -13  1    3    3    0    0 -2.3734423964e+01 +2.8956488083e+01 +5.1012641146e+01 6.3277884286e+01 0.0000000000e+00 0.0000e+00 -1.0000e+00
       13  1    3    3    0    0 +2.3734423964e+01 -2.8956488083e+01 +1.9862530517e+02 2.0212326175e+02 0.0000000000e+00 0.0000e+00 1.0000e+00
<mgrwt>
<rscale>  0 0.90103630E+02</rscale>
<asrwt>0</asrwt>
<pdfrwt beam="2">  1        3 0.12125540E-02 0.90103630E+02</pdfrwt>
<pdfrwt beam="1">  1       -3 0.39618385E-01 0.90103630E+02</pdfrwt>
<totfact> 0.26250167E+04</totfact>
</mgrwt>
</event>
<event>
 5      1 +1.6944000e+03 9.09232200e+01 7.81860800e-03 1.30063100e-01
        3 -1    0    0  501    0 +0.0000000000e+00 +0.0000000000e+00 +1.1493383000e+02 1.1493383000e+02 0.0000000000e+00 0.0000e+00 -1.0000e+00
       -3 -1    0    0    0  501 -0.0000000000e+00 -0.0000000000e+00 -1.7982155355e+01 1.7982155355e+01 0.0000000000e+00 0.0000e+00 1.0000e+00
       23  2    1    2    0    0 +0.0000000000e+00 +0.0000000000e+00 +9.6951674647e+01 1.3291598536e+02 9.0923220063e+01 0.0000e+00 0.0000e+00
      -11  1    3    3    0    0 -3.3352429468e+01 +6.4210550310e+00 +9.2650365578e+01 9.8679809186e+01 0.0000000000e+00 0.0000e+00 -1.0000e+00
       11  1    3    3    0    0 +3.3352429468e+01 -6.4210550310e+00 +4.3013090686e+00 3.4236176171e+01 0.0000000000e+00 0.0000e+00 1.0000e+00
<mgrwt>
<rscale>  0 0.90923220E+02</rscale>
<asrwt>0</asrwt>
<pdfrwt beam="1">  1        3 0.17682127E-01 0.90923220E+02</pdfrwt>
<pdfrwt beam="2">  1       -3 0.27664855E-02 0.90923220E+02</pdfrwt>
<totfact> 0.32630633E+04</totfact>
</mgrwt>
</event>
<event>
 5      1 +1.6944000e+03 9.76725400e+01 7.81860800e-03 1.28526800e-01
        1 -1    0    0  501    0 +0.0000000000e+00 +0.0000000000e+00 +1.2888890189e+02 1.2888890189e+02 0.0000000000e+00 0.0000e+00 -1.0000e+00
       -1 -1    0    0    0  501 -0.0000000000e+00 -0.0000000000e+00 -1.8504163149e+01 1.8504163149e+01 0.0000000000e+00 0.0000e+00 1.0000e+00
       23  2    1    2    0    0 +0.0000000000e+00 +0.0000000000e+00 +1.1038473874e+02 1.4739306504e+02 9.7672540023e+01 0.0000e+00 0.0000e+00
      -13  1    3    3    0    0 +9.5956523545e+00 +4.3500059413e+01 +2.4986808739e+01 5.1075163475e+01 0.0000000000e+00 0.0000e+00 1.0000e+00
       13  1    3    3    0    0 -9.5956523545e+00 -4.3500059413e+01 +8.5397930000e+01 9.6317901562e+01 0.0000000000e+00 0.0000e+00 -1.0000e+00
<mgrwt>
<rscale>  0 0.97672540E+02</rscale>
<asrwt>0</asrwt>
<pdfrwt beam="1">  1        1 0.19829061E-01 0.97672540E+02</pdfrwt>
<pdfrwt beam="2">  1       -1 0.28467944E-02 0.97672540E+02</pdfrwt>
<totfact> 0.90471979E+04</totfact>
</mgrwt>
</event>
<event>
 5      1 +1.6944000e+03 9.48298400e+01 7.81860800e-03 1.29156000e-01
        1 -1    0    0  501    0 +0.0000000000e+00 +0.0000000000e+00 +3.3680413305e+01 3.3680413305e+01 0.0000000000e+00 0.0000e+00 -1.0000e+00
       -1 -1    0    0    0  501 -0.0000000000e+00 -0.0000000000e+00 -6.6750213457e+01 6.6750213457e+01 0.0000000000e+00 0.0000e+00 1.0000e+00
       23  2    1    2    0    0 +0.0000000000e+00 +0.0000000000e+00 -3.3069800152e+01 1.0043062676e+02 9.4829842928e+01 0.0000e+00 0.0000e+00
      -11  1    3    3    0    0 -2.0299070185e+01 -2.4600387684e+01 -5.3691861638e+01 6.2450358932e+01 0.0000000000e+00 0.0000e+00 1.0000e+00
       11  1    3    3    0    0 +2.0299070185e+01 +2.4600387684e+01 +2.0622061485e+01 3.7980267831e+01 0.0000000000e+00 0.0000e+00 -1.0000e+00
<mgrwt>
<rscale>  0 0.94829843E+02</rscale>
<asrwt>0</asrwt>
<pdfrwt beam="1">  1        1 0.51816021E-02 0.94829843E+02</pdfrwt>
<pdfrwt beam="2">  1       -1 0.10269263E-01 0.94829843E+02</pdfrwt>
<totfact> 0.78896815E+04</totfact>
</mgrwt>
</event>
<event>
 5      1 +1.6944000e+03 9.00816400e+01 7.81860800e-03 1.30265400e-01
       -2 -1    0    0    0  501 -0.0000000000e+00 +0.0000000000e+00 +2.1033267028e+02 2.1033267028e+02 0.0000000000e+00 0.0000e+00 1.0000e+00
        2 -1    0    0  501    0 +0.0000000000e+00 -0.0000000000e+00 -9.6450796172e+00 9.6450796172e+00 0.0000000000e+00 0.0000e+00 -1.0000e+00
       23  2    1    2    0    0 +0.0000000000e+00 +0.0000000000e+00 +2.0068759066e+02 2.1997774989e+02 9.0081637439e+01 0.0000e+00 0.0000e+00
      -13  1    3    3    0    0 +3.0609715459e+01 -2.0311259613e+00 +1.8087721192e+02 1.8346020262e+02 0.0000000000e+00 0.0000e+00 1.0000e+00
       13  1    3    3    0    0 -3.0609715459e+01 +2.0311259613e+00 +1.9810378740e+01 3.6517547275e+01 0.0000000000e+00 0.0000e+00 -1.0000e+00
<mgrwt>
<rscale>  0 0.90081637E+02</rscale>
<asrwt>0</asrwt>
<pdfrwt beam="2">  1        2 0.14838586E-02 0.90081637E+02</pdfrwt>
<pdfrwt beam="1">  1       -2 0.32358869E-01 0.90081637E+02</pdfrwt>
<totfact> 0.62864759E+04</totfact>
</mgrwt>
</event>
<event>
 5      1 +1.6944000e+03 9.14836500e+01 7.81860800e-03 1.29929800e-01
        3 -1    0    0  501    0 +0.0000000000e+00 +0.0000000000e+00 +5.5342201960e+01 5.5342201960e+01 0.0000000000e+00 0.0000e+00 -1.0000e+00
       -3 -1    0    0    0  501 -0.0000000000e+00 -0.0000000000e+00 -3.7806855819e+01 3.7806855819e+01 0.0000000000e+00 0.0000e+00 1.0000e+00
       23  2    1    2    0    0 +0.0000000000e+00 +0.0000000000e+00 +1.7535346141e+01 9.3149057779e+01 9.1483652097e+01 0.0000e+00 0.0000e+00
      -13  1    3    3    0    0 -2.5962740604e+01 +2.4781284933e+01 +3.7641240490e+01 5.2009989120e+01 0.0000000000e+00 0.0000e+00 -1.0000e+00
       13  1    3    3    0    0 +2.5962740604e+01 -2.4781284933e+01 -2.0105894350e+01 4.1139068660e+01 0.0000000000e+00 0.0000e+00 1.0000e+00
<mgrwt>
<rscale>  0 0.91483652E+02</rscale>
<asrwt>0</asrwt>
<pdfrwt beam="1">  1        3 0.85141849E-02 0.91483652E+02</pdfrwt>
<pdfrwt beam="2">  1       -3 0.58164394E-02 0.91483652E+02</pdfrwt>
<totfact> 0.34866563E+04</totfact>
</mgrwt>
</event>
<event>
 5      1 +1.6944000e+03 9.45685300e+01 7.81860800e-03 1.29215100e-01
       -2 -1    0    0    0  501 -0.0000000000e+00 +0.0000000000e+00 +8.5175838152e+01 8.5175838152e+01 0.0000000000e+00 0.0000e+00 1.0000e+00
        2 -1    0    0  501    0 +0.0000000000e+00 -0.0000000000e+00 -2.6249245688e+01 2.6249245688e+01 0.0000000000e+00 0.0000e+00 -1.0000e+00
       23  2    1    2    0    0 +0.0000000000e+00 +0.0000000000e+00 +5.8926592464e+01 1.1142508384e+02 9.4568525470e+01 0.0000e+00 0.0000e+00
      -11  1    3    3    0    0 -4.2440293381e+00 -3.0858581791e+01 -1.2452129981e+01 3.3545780602e+01 0.0000000000e+00 0.0000e+00 -1.0000e+00
       11  1    3    3    0    0 +4.2440293381e+00 +3.0858581791e+01 +7.1378722444e+01 7.7879303239e+01 0.0000000000e+00 0.0000e+00 1.0000e+00
<mgrwt>
<rscale>  0 0.94568525E+02</rscale>
<asrwt>0</asrwt>
<pdfrwt beam="2">  1        2 0.40383455E-02 0.94568525E+02</pdfrwt>
<pdfrwt beam="1">  1       -2 0.13103975E-01 0.94568525E+02</pdfrwt>
<totfact> 0.76401091E+04</totfact>
</mgrwt>
</event>
<event>
 5      1 +1.6944000e+03 8.99371600e+01 7.81860800e-03 1.30300400e-01
        1 -1    0    0  501    0 +0.0000000000e+00 +0.0000000000e+00 +6.7743847116e+01 6.7743847116e+01 0.0000000000e+00 0.0000e+00 -1.0000e+00
       -1 -1    0    0    0  501 -0.0000000000e+00 -0.0000000000e+00 -2.9850285224e+01 2.9850285224e+01 0.0000000000e+00 0.0000e+00 1.0000e+00
       23  2    1    2    0    0 +0.0000000000e+00 +0.0000000000e+00 +3.7893561892e+01 9.7594132340e+01 8.9937159364e+01 0.0000e+00 0.0000e+00
      -13  1    3    3    0    0 +1.4935576490e+01 -1.2851222579e+01 +6.2810315935e+01 6.5828270179e+01 0.0000000000e+00 0.0000e+00 -1.0000e+00
       13  1    3    3    0    0 -1.4935576490e+01 +1.2851222579e+01 -2.4916754043e+01 3.1765862162e+01 0.0000000000e+00 0.0000e+00 1.0000e+00
<mgrwt>
<rscale>  0 0.89937159E+02</rscale>
<asrwt>0</asrwt>
<pdfrwt beam="1">  1        1 0.10422130E-01 0.89937159E+02</pdfrwt>
<pdfrwt beam="2">  1       -1 0.45923516E-02 0.89937159E+02</pdfrwt>
<totfact> 0.10194557E+05</totfact>
</mgrwt>
</event>
<event>
 4      1 +1.6944000e+03 2.42973000e+01 7.81860800e-03 1.67130500e-01
       -2 -1    0    0    0  501 -0.0000000000e+00 +0.0000000000e+00 +1.8566365710e+00 1.8566365710e+00 0.0000000000e+00 0.0000e+00 1.0000e+00
        2 -1    0    0  501    0 +0.0000000000e+00 -0.0000000000e+00 -7.9493035425e+01 7.9493035425e+01 0.0000000000e+00 0.0000e+00 -1.0000e+00
      -13  1    1    2    0    0 -7.6204608235e+00 +7.8763806030e+00 -2.1266743227e+01 2.3924530550e+01 0.0000000000e+00 0.0000e+00 1.0000e+00
       13  1    1    2    0    0 +7.6204608235e+00 -7.8763806030e+00 -5.6369655627e+01 5.7425141445e+01 0.0000000000e+00 0.0000e+00 -1.0000e+00
<mgrwt>
<rscale>  0 0.24297298E+02</rscale>
<asrwt>0</asrwt>
<pdfrwt beam="2">  1        2 0.12229697E-01 0.24297298E+02</pdfrwt>
<pdfrwt beam="1">  1       -2 0.28563641E-03 0.24297298E+02</pdfrwt>
<totfact> 0.32408128E+06</totfact>
</mgrwt>
</event>
<event>
 5      1 +1.6944000e+03 9.17040900e+01 7.81860800e-03 1.29877700e-01
       -3 -1    0    0    0  501 -0.0000000000e+00 +0.0000000000e+00 +3.0941524335e+01 3.0941524335e+01 0.0000000000e+00 0.0000e+00 1.0000e+00
        3 -1    0    0  501    0 +0.0000000000e+00 -0.0000000000e+00 -6.7947844534e+01 6.7947844534e+01 0.0000000000e+00 0.0000e+00 -1.0000e+00
       23  2    1    2    0    0 +0.0000000000e+00 +0.0000000000e+00 -3.7006320199e+01 9.8889368869e+01 9.1704086826e+01 0.0000e+00 0.0000e+00
      -13  1    3    3    0    0 +3.3260715417e+01 -3.1552686314e+01 -1.9312055223e+01 4.9747388682e+01 0.0000000000e+00 0.0000e+00 -1.0000e+00
       13  1    3    3    0    0 -3.3260715417e+01 +3.1552686314e+01 -1.7694264976e+01 4.9141980187e+01 0.0000000000e+00 0.0000e+00 1.0000e+00
<mgrwt>
<rscale>  0 0.91704087E+02</rscale>
<asrwt>0</asrwt>
<pdfrwt beam="2">  1        3 0.10453514E-01 0.91704087E+02</pdfrwt>
<pdfrwt beam="1">  1       -3 0.47602346E-02 0.91704087E+02</pdfrwt>
<totfact> 0.34211222E+04</totfact>
</mgrwt>
</event>
<event>
 4      1 +1.6944000e+03 1.36972300e+02 7.81860800e-03 1.21746200e-01
        2 -1    0    0  501    0 +0.0000000000e+00 +0.0000000000e+00 +8.9538361855e+01 8.9538361855e+01 0.0000000000e+00 0.0000e+00 -1.0000e+00
       -2 -1    0    0    0  501 -0.0000000000e+00 -0.0000000000e+00 -5.2383703145e+01 5.2383703145e+01 0.0000000000e+00 0.0000e+00 1.0000e+00
      -11  1    1    2    0    0 -4.7505048758e+01 -1.8454581454e+01 -2.8825801788e+01 5.8551072432e+01 0.0000000000e+00 0.0000e+00 1.0000e+00
       11  1    1    2    0    0 +4.7505048758e+01 +1.8454581454e+01 +6.5980460499e+01 8.3370992568e+01 0.0000000000e+00 0.0000e+00 -1.0000e+00
<mgrwt>
<rscale>  0 0.13697227E+03</rscale>
<asrwt>0</asrwt>
<pdfrwt beam="1">  1        2 0.13775133E-01 0.13697227E+03</pdfrwt>
<pdfrwt beam="2">  1       -2 0.80590313E-02 0.13697227E+03</pdfrwt>
<totfact> 0.36981595E+04</totfact>
</mgrwt>
</event>
<event>
 4      1 +1.6944000e+03 1.07652100e+02 7.81860800e-03 1.26498100e-01
       -2 -1    0    0    0  501 -0.0000000000e+00 +0.0000000000e+00 +2.7167838040e+01 2.7167838040e+01 0.0000000000e+00 0.0000e+00 1.0000e+00
        2 -1    0    0  501    0 +0.0000000000e+00 -0.0000000000e+00 -1.0664233866e+02 1.0664233866e+02 0.0000000000e+00 0.0000e+00 -1.0000e+00
      -11  1    1    2    0    0 +1.0390204210e+00 +5.3233012480e+01 -4.9556742107e+01 7.2737224785e+01 0.0000000000e+00 0.0000e+00 -1.0000e+00
       11  1    1    2    0    0 -1.0390204210e+00 -5.3233012480e+01 -2.9917758512e+01 6.1072951914e+01 0.0000000000e+00 0.0000e+00 1.0000e+00
<mgrwt>
<rscale>  0 0.10765207E+03</rscale>
<asrwt>0</asrwt>
<pdfrwt beam="2">  1        2 0.16406514E-01 0.10765207E+03</pdfrwt>
<pdfrwt beam="1">  1       -2 0.41796673E-02 0.10765207E+03</pdfrwt>
<totfact> 0.78831287E+04</totfact>
</mgrwt>
</event>
<event>
 4      1 +1.6944000e+03 2.18921500e+01 7.81860800e-03 1.71012400e-01
       -2 -1    0    0    0  501 -0.0000000000e+00 +0.0000000000e+00 +1.3389766608e+01 1.3389766608e+01 0.0000000000e+00 0.0000e+00 1.0000e+00
        2 -1    0    0  501    0 +0.0000000000e+00 -0.0000000000e+00 -8.9483666081e+00 8.9483666081e+00 0.0000000000e+00 0.0000e+00 -1.0000e+00
      -11  1    1    2    0    0 -8.2760039569e+00 +6.9510987024e+00 +3.9899571386e+00 1.1520840795e+01 0.0000000000e+00 0.0000e+00 1.0000e+00
       11  1    1    2    0    0 +8.2760039569e+00 -6.9510987024e+00 +4.5144286161e-01 1.0817292421e+01 0.0000000000e+00 0.0000e+00 -1.0000e+00
<mgrwt>
<rscale>  0 0.21892148E+02</rscale>
<asrwt>0</asrwt>
<pdfrwt beam="2">  1        2 0.13766718E-02 0.21892148E+02</pdfrwt>
<pdfrwt beam="1">  1       -2 0.20599641E-02 0.21892148E+02</pdfrwt>
<totfact> 0.31750607E+06</totfact>
</mgrwt>
</event>
<event>
 5      1 +1.6944000e+03 9.09361500e+01 7.81860800e-03 1.30060000e-01
       -3 -1    0    0    0  501 -0.0000000000e+00 +0.0000000000e+00 +8.8840526804e+01 8.8840526804e+01 0.0000000000e+00 0.0000e+00 1.0000e+00
        3 -1    0    0  501    0 +0.0000000000e+00 -0.0000000000e+00 -2.3270300883e+01 2.3270300883e+01 0.0000000000e+00 0.0000e+00 -1.0000e+00
       23  2    1    2    0    0 +0.0000000000e+00 +0.0000000000e+00 +6.5570225921e+01 1.1211082769e+02 9.0936148794e+01 0.0000e+00 0.0000e+00
      -11  1    3    3    0    0 -5.9816225157e+00 -4.4679720971e+01 +2.5461461038e+01 5.1772031756e+01 0.0000000000e+00 0.0000e+00 -1.0000e+00
       11  1    3    3    0    0 +5.9816225157e+00 +4.4679720971e+01 +4.0108764883e+01 6.0338795931e+01 0.0000000000e+00 0.0000e+00 1.0000e+00
<mgrwt>
<rscale>  0 0.90936149E+02</rscale>
<asrwt>0</asrwt>
<pdfrwt beam="2">  1        3 0.35800463E-02 0.90936149E+02</pdfrwt>
<pdfrwt beam="1">  1       -3 0.13667773E-01 0.90936149E+02</pdfrwt>
<totfact> 0.34040237E+04</totfact>
</mgrwt>
</event>
<event>
 4      1 +1.6944000e+03 3.76604300e+01 7.81860800e-03 1.52617000e-01
       -2 -1    0    0    0  501 -0.0000000000e+00 +0.0000000000e+00 +2.3341604787e+01 2.3341604787e+01 0.0000000000e+00 0.0000e+00 -1.0000e+00
        2 -1    0    0  501    0 +0.0000000000e+00 -0.0000000000e+00 -1.5190775533e+01 1.5190775533e+01 0.0000000000e+00 0.0000e+00 1.0000e+00
      -11  1    1    2    0    0 -9.6146247793e+00 -1.6002346693e+01 +1.5565109234e+00 1.8733361567e+01 0.0000000000e+00 0.0000e+00 1.0000e+00
       11  1    1    2    0    0 +9.6146247793e+00 +1.6002346693e+01 +6.5943183311e+00 1.9799018753e+01 0.0000000000e+00 0.0000e+00 -1.0000e+00
<mgrwt>
<rscale>  0 0.37660434E+02</rscale>
<asrwt>0</asrwt>
<pdfrwt beam="2">  1        2 0.23370424E-02 0.37660434E+02</pdfrwt>
<pdfrwt beam="1">  1       -2 0.35910161E-02 0.37660434E+02</pdfrwt>
<totfact> 0.88799789E+05</totfact>
</mgrwt>
</event>
<event>
 5      1 +1.6944000e+03 9.06069500e+01 7.81860800e-03 1.30138800e-01
       -1 -1    0    0    0  501 -0.0000000000e+00 +0.0000000000e+00 +8.2211823893e+01 8.2211823893e+01 0.0000000000e+00 0.0000e+00 1.0000e+00
        1 -1    0    0  501    0 +0.0000000000e+00 -0.0000000000e+00 -2.4964839202e+01 2.4964839202e+01 0.0000000000e+00 0.0000e+00 -1.0000e+00
       23  2    1    2    0    0 +0.0000000000e+00 +0.0000000000e+00 +5.7246984692e+01 1.0717666310e+02 9.0606952580e+01 0.0000e+00 0.0000e+00
      -13  1    3    3    0    0 -3.5188817718e+01 +1.7217371883e+01 +5.5537832467e+01 6.7964267245e+01 0.0000000000e+00 0.0000e+00 1.0000e+00
       13  1    3    3    0    0 +3.5188817718e+01 -1.7217371883e+01 +1.7091522242e+00 3.9212395850e+01 0.0000000000e+00 0.0000e+00 -1.0000e+00
<mgrwt>
<rscale>  0 0.90606953E+02</rscale>
<asrwt>0</asrwt>
<pdfrwt beam="2">  1        1 0.38407445E-02 0.90606953E+02</pdfrwt>
<pdfrwt beam="1">  1       -1 0.12647973E-01 0.90606953E+02</pdfrwt>
<totfact> 0.85622727E+04</totfact>
</mgrwt>
</event>
<event>
 5      1 +1.6944000e+03 9.28051600e+01 7.81860800e-03 1.29619700e-01
       -3 -1    0    0    0  501 -0.0000000000e+00 +0.0000000000e+00 +4.3779164246e+01 4.3779164246e+01 0.0000000000e+00 0.0000e+00 1.0000e+00
        3 -1    0    0  501    0 +0.0000000000e+00 -0.0000000000e+00 -4.9183203882e+01 4.9183203882e+01 0.0000000000e+00 0.0000e+00 -1.0000e+00
       23  2    1    2    0    0 +0.0000000000e+00 +0.0000000000e+00 -5.4040396354e+00 9.2962368128e+01 9.2805162807e+01 0.0000e+00 0.0000e+00
      -13  1    3    3    0    0 -3.6565349621e+00 +2.2122696786e+01 +3.7992103935e+01 4.4115574602e+01 0.0000000000e+00 0.0000e+00 1.0000e+00
       13  1    3    3    0    0 +3.6565349621e+00 -2.2122696786e+01 -4.3396143571e+01 4.8846793526e+01 0.0000000000e+00 0.0000e+00 -1.0000e+00
<mgrwt>
<rscale>  0 0.92805163E+02</rscale>
<asrwt>0</asrwt>
<pdfrwt beam="2">  1        3 0.75666468E-02 0.92805163E+02</pdfrwt>
<pdfrwt beam="1">  1       -3 0.67352560E-02 0.92805163E+02</pdfrwt>
<totfact> 0.33540097E+04</totfact>
</mgrwt>
</event>
<event>
 5      1 +1.6944000e+03 9.03576900e+01 7.81860800e-03 1.30198800e-01
       -1 -1    0    0    0  501 -0.0000000000e+00 +0.0000000000e+00 +3.5237190686e+01 3.5237190686e+01 0.0000000000e+00 0.0000e+00 1.0000e+00
        1 -1    0    0  501    0 +0.0000000000e+00 -0.0000000000e+00 -5.7925384579e+01 5.7925384579e+01 0.0000000000e+00 0.0000e+00 -1.0000e+00
       23  2    1    2    0    0 +0.0000000000e+00 +0.0000000000e+00 -2.2688193893e+01 9.3162575265e+01 9.0357685273e+01 0.0000e+00 0.0000e+00
      -13  1    3    3    0    0 -4.3605438425e+01 -5.2067026834e+00 -2.2284022254e+01 4.9245524273e+01 0.0000000000e+00 0.0000e+00 -1.0000e+00
       13  1    3    3    0    0 +4.3605438425e+01 +5.2067026834e+00 -4.0417163809e-01 4.3917050992e+01 0.0000000000e+00 0.0000e+00 1.0000e+00
<mgrwt>
<rscale>  0 0.90357685E+02</rscale>
<asrwt>0</asrwt>
<pdfrwt beam="2">  1        1 0.89115975E-02 0.90357685E+02</pdfrwt>
<pdfrwt beam="1">  1       -1 0.54211063E-02 0.90357685E+02</pdfrwt>
<totfact> 0.98290265E+04</totfact>
</mgrwt>
</event>
<event>
 5      1 +1.6944000e+03 9.11977100e+01 7.81860800e-03 1.29997700e-01
        1 -1    0    0  501    0 +0.0000000000e+00 +0.0000000000e+00 +2.0585337055e+02 2.0585337055e+02 0.0000000000e+00 0.0000e+00 -1.0000e+00
       -1 -1    0    0    0  501 -0.0000000000e+00 -0.0000000000e+00 -1.0100662187e+01 1.0100662187e+01 0.0000000000e+00 0.0000e+00 1.0000e+00
       23  2    1    2    0    0 +0.0000000000e+00 +0.0000000000e+00 +1.9575270836e+02 2.1595403274e+02 9.1197705146e+01 0.0000e+00 0.0000e+00
      -13  1    3    3    0    0 -4.4888301648e+01 -7.0574465567e+00 +8.8863044057e+01 9.9806852349e+01 0.0000000000e+00 0.0000e+00 1.0000e+00
       13  1    3    3    0    0 +4.4888301648e+01 +7.0574465567e+00 +1.0688966430e+02 1.1614718039e+02 0.0000000000e+00 0.0000e+00 -1.0000e+00
<mgrwt>
<rscale>  0 0.91197705E+02</rscale>
<asrwt>0</asrwt>
<pdfrwt beam="1">  1        1 0.31669746E-01 0.91197705E+02</pdfrwt>
<pdfrwt beam="2">  1       -1 0.15539482E-02 0.91197705E+02</pdfrwt>
<totfact> 0.11899811E+05</totfact>
</mgrwt>
</event>
<event>
 5      1 +1.6944000e+03 9.15311800e+01 7.81860800e-03 1.29918600e-01
        3 -1    0    0  501    0 +0.0000000000e+00 +0.0000000000e+00 +4.1180239134e+01 4.1180239134e+01 0.0000000000e+00 0.0000e+00 -1.0000e+00
       -3 -1    0    0    0  501 -0.0000000000e+00 -0.0000000000e+00 -5.0861512706e+01 5.0861512706e+01 0.0000000000e+00 0.0000e+00 1.0000e+00
       23  2    1    2    0    0 +0.0000000000e+00 +0.0000000000e+00 -9.6812735718e+00 9.2041751840e+01 9.1531180609e+01 0.0000e+00 0.0000e+00
      -11  1    3    3    0    0 -3.4166204933e+01 -1.6237300345e+01 +2.1061731516e+01 4.3296374173e+01 0.0000000000e+00 0.0000e+00 -1.0000e+00
       11  1    3    3    0    0 +3.4166204933e+01 +1.6237300345e+01 -3.0743005088e+01 4.8745377667e+01 0.0000000000e+00 0.0000e+00 1.0000e+00
<mgrwt>
<rscale>  0 0.91531181E+02</rscale>
<asrwt>0</asrwt>
<pdfrwt beam="1">  1        3 0.63354214E-02 0.91531181E+02</pdfrwt>
<pdfrwt beam="2">  1       -3 0.78248481E-02 0.91531181E+02</pdfrwt>
<totfact> 0.34901222E+04</totfact>
</mgrwt>
</event>
<event>
 5      1 +1.6944000e+03 9.25825600e+01 7.81860800e-03 1.29671500e-01
        3 -1    0    0  501    0 +0.0000000000e+00 +0.0000000000e+00 +8.2256643393e+01 8.2256643393e+01 0.0000000000e+00 0.0000e+00 -1.0000e+00
       -3 -1    0    0    0  501 -0.0000000000e+00 -0.0000000000e+00 -2.6051178370e+01 2.6051178370e+01 0.0000000000e+00 0.0000e+00 1.0000e+00
       23  2    1    2    0    0 +0.0000000000e+00 +0.0000000000e+00 +5.6205465023e+01 1.0830782176e+02 9.2582557519e+01 0.0000e+00 0.0000e+00
      -13  1    3    3    0    0 +2.6191900483e+01 -1.0294524887e+01 +7.1099972246e+01 7.6466979454e+01 0.0000000000e+00 0.0000e+00 -1.0000e+00
       13  1    3    3    0    0 -2.6191900483e+01 +1.0294524887e+01 -1.4894507222e+01 3.1840842309e+01 0.0000000000e+00 0.0000e+00 1.0000e+00
<mgrwt>
<rscale>  0 0.92582558E+02</rscale>
<asrwt>0</asrwt>
<pdfrwt beam="1">  1        3 0.12654868E-01 0.92582558E+02</pdfrwt>
<pdfrwt beam="2">  1       -3 0.40078736E-02 0.92582558E+02</pdfrwt>
<totfact> 0.32674312E+04</totfact>
</mgrwt>
</event>
<event>
 5      1 +1.6944000e+03 9.16980100e+01 7.81860800e-03 1.29879100e-01
       -1 -1    0    0    0  501 -0.0000000000e+00 +0.0000000000e+00 +1.4621061421e+02 1.4621061421e+02 0.0000000000e+00 0.0000e+00 1.0000e+00
        1 -1    0    0  501    0 +0.0000000000e+00 -0.0000000000e+00 -1.4377420007e+01 1.4377420007e+01 0.0000000000e+00 0.0000e+00 -1.0000e+00
       23  2    1    2    0    0 +0.0000000000e+00 +0.0000000000e+00 +1.3183319421e+02 1.6058803422e+02 9.1698013282e+01 0.0000e+00 0.0000e+00
      -13  1    3    3    0    0 -4.5516946596e+01 -3.6830798593e+00 +5.8744100532e+01 7.4405825390e+01 0.0000000000e+00 0.0000e+00 1.0000e+00
       13  1    3    3    0    0 +4.5516946596e+01 +3.6830798593e+00 +7.3089093674e+01 8.6182208830e+01 0.0000000000e+00 0.0000e+00 -1.0000e+00
<mgrwt>
<rscale>  0 0.91698013E+02</rscale>
<asrwt>0</asrwt>
<pdfrwt beam="2">  1        1 0.22119109E-02 0.91698013E+02</pdfrwt>
<pdfrwt beam="1">  1       -1 0.22493940E-01 0.91698013E+02</pdfrwt>
<totfact> 0.74128691E+04</totfact>
</mgrwt>
</event>
<event>
 5      1 +1.6944000e+03 9.16131000e+01 7.81860800e-03 1.29899200e-01
       -4 -1    0    0    0  501 -0.0000000000e+00 +0.0000000000e+00 +3.5447273249e+01 3.5447273249e+01 0.0000000000e+00 0.0000e+00 1.0000e+00
        4 -1    0    0  501    0 +0.0000000000e+00 -0.0000000000e+00 -5.9193271512e+01 5.9193271512e+01 0.0000000000e+00 0.0000e+00 -1.0000e+00
       23  2    1    2    0    0 +0.0000000000e+00 +0.0000000000e+00 -2.3745998263e+01 9.4640544760e+01 9.1613101023e+01 0.0000e+00 0.0000e+00
      -11  1    3    3    0    0 -7.3959091443e+00 -2.9837645240e+01 -4.6954843646e+01 5.6122561304e+01 0.0000000000e+00 0.0000e+00 -1.0000e+00
       11  1    3    3    0    0 +7.3959091443e+00 +2.9837645240e+01 +2.3208845383e+01 3.8517983456e+01 0.0000000000e+00 0.0000e+00 1.0000e+00
<mgrwt>
<rscale>  0 0.91613101E+02</rscale>
<asrwt>0</asrwt>
<pdfrwt beam="2">  1        4 0.91066570E-02 0.91613101E+02</pdfrwt>
<pdfrwt beam="1">  1       -4 0.54534267E-02 0.91613101E+02</pdfrwt>
<totfact> 0.26449270E+04</totfact>
</mgrwt>
</event>
<event>
 5      1 +1.6944000e+03 9.03610400e+01 7.81860800e-03 1.30198000e-01
        1 -1    0    0  501    0 +0.0000000000e+00 +0.0000000000e+00 +4.0904030298e+01 4.0904030298e+01 0.0000000000e+00 0.0000e+00 -1.0000e+00
       -1 -1    0    0    0  501 -0.0000000000e+00 -0.0000000000e+00 -4.9904118792e+01 4.9904118792e+01 0.0000000000e+00 0.0000e+00 1.0000e+00
       23  2    1    2    0    0 +0.0000000000e+00 +0.0000000000e+00 -9.0000884936e+00 9.0808149090e+01 9.0361044417e+01 0.0000e+00 0.0000e+00
      -13  1    3    3    0    0 +3.7171316651e+01 -2.1933241424e+01 -1.7926755759e+01 4.6734809649e+01 0.0000000000e+00 0.0000e+00 -1.0000e+00
       13  1    3    3    0    0 -3.7171316651e+01 +2.1933241424e+01 +8.9266672651e+00 4.4073339440e+01 0.0000000000e+00 0.0000e+00 1.0000e+00
<mgrwt>
<rscale>  0 0.90361044E+02</rscale>
<asrwt>0</asrwt>
<pdfrwt beam="1">  1        1 0.62929277E-02 0.90361044E+02</pdfrwt>
<pdfrwt beam="2">  1       -1 0.76775568E-02 0.90361044E+02</pdfrwt>
<totfact> 0.93304904E+04</totfact>
</mgrwt>
</event>
<event>
 4      1 +1.6944000e+03 2.91488300e+02 7.81860800e-03 1.08957500e-01
       -1 -1    0    0    0  501 -0.0000000000e+00 +0.0000000000e+00 +3.1606516599e+01 3.1606516599e+01 0.0000000000e+00 0.0000e+00 1.0000e+00
        1 -1    0    0  501    0 +0.0000000000e+00 -0.0000000000e+00 -6.7205645961e+02 6.7205645961e+02 0.0000000000e+00 0.0000e+00 -1.0000e+00
      -11  1    1    2    0    0 -7.8996652162e+01 -1.2076609910e+02 -3.6948795599e+02 3.9666896950e+02 0.0000000000e+00 0.0000e+00 1.0000e+00
       11  1    1    2    0    0 +7.8996652162e+01 +1.2076609910e+02 -2.7096198702e+02 3.0699400670e+02 0.0000000000e+00 0.0000e+00 -1.0000e+00
<mgrwt>
<rscale>  0 0.29148834E+03</rscale>
<asrwt>0</asrwt>
<pdfrwt beam="2">  1        1 0.10339331E+00 0.29148834E+03</pdfrwt>
<pdfrwt beam="1">  1       -1 0.48625407E-02 0.29148834E+03</pdfrwt>
<totfact> 0.54863669E+03</totfact>
</mgrwt>
</event>
<event>
 5      1 +1.6944000e+03 9.15704500e+01 7.81860800e-03 1.29909300e-01
        4 -1    0    0  501    0 +0.0000000000e+00 +0.0000000000e+00 +8.8327955657e+01 8.8327955657e+01 0.0000000000e+00 0.0000e+00 1.0000e+00
       -4 -1    0    0    0  501 -0.0000000000e+00 -0.0000000000e+00 -2.3732995333e+01 2.3732995333e+01 0.0000000000e+00 0.0000e+00 -1.0000e+00
       23  2    1    2    0    0 +0.0000000000e+00 +0.0000000000e+00 +6.4594960324e+01 1.1206095099e+02 9.1570452863e+01 0.0000e+00 0.0000e+00
      -11  1    3    3    0    0 +2.4983064747e+01 -3.1672516930e+01 +5.8799469035e+01 7.1306938033e+01 0.0000000000e+00 0.0000e+00 1.0000e+00
       11  1    3    3    0    0 -2.4983064747e+01 +3.1672516930e+01 +5.7954912881e+00 4.0754012957e+01 0.0000000000e+00 0.0000e+00 -1.0000e+00
<mgrwt>
<rscale>  0 0.91570453E+02</rscale>
<asrwt>0</asrwt>
<pdfrwt beam="1">  1        4 0.13588916E-01 0.91570453E+02</pdfrwt>
<pdfrwt beam="2">  1       -4 0.36512301E-02 0.91570453E+02</pdfrwt>
<totfact> 0.25432292E+04</totfact>
</mgrwt>
</event>
<event>
 5      1 +1.6944000e+03 8.24087400e+01 7.81860800e-03 1.32235100e-01
       -1 -1    0    0    0  501 -0.0000000000e+00 +0.0000000000e+00 +4.0977734027e+01 4.0977734027e+01 0.0000000000e+00 0.0000e+00 1.0000e+00
        1 -1    0    0  501    0 +0.0000000000e+00 -0.0000000000e+00 -4.1432257292e+01 4.1432257292e+01 0.0000000000e+00 0.0000e+00 -1.0000e+00
       23  2    1    2    0    0 +0.0000000000e+00 +0.0000000000e+00 -4.5452326474e-01 8.2409991318e+01 8.2408737872e+01 0.0000e+00 0.0000e+00
      -11  1    3    3    0    0 +3.5919759428e+01 -1.1209261830e+00 -2.0384810760e+01 4.1316172410e+01 0.0000000000e+00 0.0000e+00 -1.0000e+00
       11  1    3    3    0    0 -3.5919759428e+01 +1.1209261830e+00 +1.9930287495e+01 4.1093818909e+01 0.0000000000e+00 0.0000e+00 1.0000e+00
<mgrwt>
<rscale>  0 0.82408738E+02</rscale>
<asrwt>0</asrwt>
<pdfrwt beam="2">  1        1 0.63741934E-02 0.82408738E+02</pdfrwt>
<pdfrwt beam="1">  1       -1 0.63042668E-02 0.82408738E+02</pdfrwt>
<totfact> 0.12090587E+05</totfact>
</mgrwt>
</event>
<event>
 4      1 +1.6944000e+03 2.44001600e+01 7.81860800e-03 1.66977000e-01
        2 -1    0    0  501    0 +0.0000000000e+00 +0.0000000000e+00 +3.2484085190e+00 3.2484085190e+00 0.0000000000e+00 0.0000e+00 1.0000e+00
       -2 -1    0    0    0  501 -0.0000000000e+00 -0.0000000000e+00 -4.5819972962e+01 4.5819972962e+01 0.0000000000e+00 0.0000e+00 -1.0000e+00
      -11  1    1    2    0    0 -8.3518479860e+00 -5.9005080481e+00 -7.9051490085e+00 1.2925197904e+01 0.0000000000e+00 0.0000e+00 1.0000e+00
       11  1    1    2    0    0 +8.3518479860e+00 +5.9005080481e+00 -3.4666415435e+01 3.6143183577e+01 0.0000000000e+00 0.0000e+00 -1.0000e+00
<mgrwt>
<rscale>  0 0.24400163E+02</rscale>
<asrwt>0</asrwt>
<pdfrwt beam="1">  1        2 0.49975515E-03 0.24400163E+02</pdfrwt>
<pdfrwt beam="2">  1       -2 0.70492268E-02 0.24400163E+02</pdfrwt>
<totfact> 0.22074686E+06</totfact>
</mgrwt>
</event>
<event>
 5      1 +1.6944000e+03 9.72016200e+01 7.81860800e-03 1.28629300e-01
        4 -1    0    0  501    0 +0.0000000000e+00 +0.0000000000e+00 +1.5568236753e+02 1.5568236753e+02 0.0000000000e+00 0.0000e+00 -1.0000e+00
       -4 -1    0    0    0  501 -0.0000000000e+00 -0.0000000000e+00 -1.5172165686e+01 1.5172165686e+01 0.0000000000e+00 0.0000e+00 1.0000e+00
       23  2    1    2    0    0 +0.0000000000e+00 +0.0000000000e+00 +1.4051020185e+02 1.7085453322e+02 9.7201618804e+01 0.0000e+00 0.0000e+00
      -13  1    3    3    0    0 +9.9756670448e-01 -4.7198729754e+01 +4.9959296383e+01 6.8736064223e+01 0.0000000000e+00 0.0000e+00 1.0000e+00
       13  1    3    3    0    0 -9.9756670448e-01 +4.7198729754e+01 +9.0550905463e+01 1.0211846899e+02 0.0000000000e+00 0.0000e+00 -1.0000e+00
<mgrwt>
<rscale>  0 0.97201619E+02</rscale>
<asrwt>0</asrwt>
<pdfrwt beam="1">  1        4 0.23951132E-01 0.97201619E+02</pdfrwt>
<pdfrwt beam="2">  1       -4 0.23341794E-02 0.97201619E+02</pdfrwt>
<totfact> 0.19070646E+04</totfact>
</mgrwt>
</event>
<event>
 4      1 +1.6944000e+03 3.63725000e+01 7.81860800e-03 1.53674000e-01
       -2 -1    0    0    0  501 -0.0000000000e+00 +0.0000000000e+00 +1.4121704187e+01 1.4121704187e+01 0.0000000000e+00 0.0000e+00 -1.0000e+00
        2 -1    0    0  501    0 +0.0000000000e+00 -0.0000000000e+00 -2.3420661760e+01 2.3420661760e+01 0.0000000000e+00 0.0000e+00 1.0000e+00
      -11  1    1    2    0    0 +1.5305888366e+01 -1.2418913064e+00 -1.4705906024e+01 2.1262083263e+01 0.0000000000e+00 0.0000e+00 1.0000e+00
       11  1    1    2    0    0 -1.5305888366e+01 +1.2418913064e+00 +5.4069484516e+00 1.6280282683e+01 0.0000000000e+00 0.0000e+00 -1.0000e+00
<mgrwt>
<rscale>  0 0.36372498E+02</rscale>
<asrwt>0</asrwt>
<pdfrwt beam="2">  1        2 0.36031787E-02 0.36372498E+02</pdfrwt>
<pdfrwt beam="1">  1       -2 0.21725699E-02 0.36372498E+02</pdfrwt>
<totfact> 0.10227020E+06</totfact>
</mgrwt>
</event>
<event>
 5      1 +1.6944000e+03 8.54229500e+01 7.81860800e-03 1.31433000e-01
       -2 -1    0    0    0  501 -0.0000000000e+00 +0.0000000000e+00 +2.2130742913e+01 2.2130742913e+01 0.0000000000e+00 0.0000e+00 1.0000e+00
        2 -1    0    0  501    0 +0.0000000000e+00 -0.0000000000e+00 -8.2431483807e+01 8.2431483807e+01 0.0000000000e+00 0.0000e+00 -1.0000e+00
       23  2    1    2    0    0 +0.0000000000e+00 +0.0000000000e+00 -6.0300740894e+01 1.0456222672e+02 8.5422947176e+01 0.0000e+00 0.0000e+00
      -13  1    3    3    0    0 +8.2178371606e+00 +4.1077842109e+01 -4.0343728819e+01 5.8159594350e+01 0.0000000000e+00 0.0000e+00 -1.0000e+00
       13  1    3    3    0    0 -8.2178371606e+00 -4.1077842109e+01 -1.9957012075e+01 4.6402632370e+01 0.0000000000e+00 0.0000e+00 1.0000e+00
<mgrwt>
<rscale>  0 0.85422947E+02</rscale>
<asrwt>0</asrwt>
<pdfrwt beam="2">  1        2 0.12681767E-01 0.85422947E+02</pdfrwt>
<pdfrwt beam="1">  1       -2 0.34047297E-02 0.85422947E+02</pdfrwt>
<totfact> 0.13867639E+05</totfact>
</mgrwt>
</event>
<event>
 5      1 +1.6944000e+03 9.18373300e+01 7.81860800e-03 1.29846200e-01
        1 -1    0    0  501    0 +0.0000000000e+00 +0.0000000000e+00 +1.0203278487e+02 1.0203278487e+02 0.0000000000e+00 0.0000e+00 -1.0000e+00
       -1 -1    0    0    0  501 -0.0000000000e+00 -0.0000000000e+00 -2.0665158049e+01 2.0665158049e+01 0.0000000000e+00 0.0000e+00 1.0000e+00
       23  2    1    2    0    0 +0.0000000000e+00 +0.0000000000e+00 +8.1367626824e+01 1.2269794292e+02 9.1837326302e+01 0.0000e+00 0.0000e+00
      -11  1    3    3    0    0 -3.3912021204e+01 -2.7534425990e+01 +2.1772709828e+01 4.8807998217e+01 0.0000000000e+00 0.0000e+00 1.0000e+00
       11  1    3    3    0    0 +3.3912021204e+01 +2.7534425990e+01 +5.9594916997e+01 7.3889944705e+01 0.0000000000e+00 0.0000e+00 -1.0000e+00
<mgrwt>
<rscale>  0 0.91837326E+02</rscale>
<asrwt>0</asrwt>
<pdfrwt beam="1">  1        1 0.15697351E-01 0.91837326E+02</pdfrwt>
<pdfrwt beam="2">  1       -1 0.31792551E-02 0.91837326E+02</pdfrwt>
<totfact> 0.10275898E+05</totfact>
</mgrwt>
</event>
<event>
 5      1 +1.6944000e+03 9.14219600e+01 7.81860800e-03 1.29944400e-01
       -1 -1    0    0    0  501 -0.0000000000e+00 +0.0000000000e+00 +2.1616427475e+02 2.1616427475e+02 0.0000000000e+00 0.0000e+00 1.0000e+00
        1 -1    0    0  501    0 +0.0000000000e+00 -0.0000000000e+00 -9.6662304698e+00 9.6662304698e+00 0.0000000000e+00 0.0000e+00 -1.0000e+00
       23  2    1    2    0    0 +0.0000000000e+00 +0.0000000000e+00 +2.0649804428e+02 2.2583050522e+02 9.1421960142e+01 0.0000e+00 0.0000e+00
      -13  1    3    3    0    0 -3.7370680468e+01 -7.6607448857e+00 +1.6545878198e+02 1.6979947970e+02 0.0000000000e+00 0.0000e+00 -1.0000e+00
       13  1    3    3    0    0 +3.7370680468e+01 +7.6607448857e+00 +4.1039262293e+01 5.6031025516e+01 0.0000000000e+00 0.0000e+00 1.0000e+00
<mgrwt>
<rscale>  0 0.91421960E+02</rscale>
<asrwt>0</asrwt>
<pdfrwt beam="2">  1        1 0.14871125E-02 0.91421960E+02</pdfrwt>
<pdfrwt beam="1">  1       -1 0.33256039E-01 0.91421960E+02</pdfrwt>
<totfact> 0.67380352E+04</totfact>
</mgrwt>
</event>
<event>
 5      1 +1.6944000e+03 8.82898100e+01 7.81860800e-03 1.30704700e-01
        2 -1    0    0  501    0 +0.0000000000e+00 +0.0000000000e+00 +1.5096543386e+02 1.5096543386e+02 0.0000000000e+00 0.0000e+00 -1.0000e+00
       -2 -1    0    0    0  501 -0.0000000000e+00 -0.0000000000e+00 -1.2908733682e+01 1.2908733682e+01 0.0000000000e+00 0.0000e+00 1.0000e+00
       23  2    1    2    0    0 +0.0000000000e+00 +0.0000000000e+00 +1.3805670018e+02 1.6387416754e+02 8.8289808717e+01 0.0000e+00 0.0000e+00
      -11  1    3    3    0    0 +3.2180799923e+01 +1.7874015480e+01 +1.1425341053e+02 1.2003718645e+02 0.0000000000e+00 0.0000e+00 -1.0000e+00
       11  1    3    3    0    0 -3.2180799923e+01 -1.7874015480e+01 +2.3803289645e+01 4.3836981089e+01 0.0000000000e+00 0.0000e+00 1.0000e+00
<mgrwt>
<rscale>  0 0.88289809E+02</rscale>
<asrwt>0</asrwt>
<pdfrwt beam="1">  1        2 0.23225450E-01 0.88289809E+02</pdfrwt>
<pdfrwt beam="2">  1       -2 0.19859591E-02 0.88289809E+02</pdfrwt>
<totfact> 0.15286195E+05</totfact>
</mgrwt>
</event>
<event>
 5      1 +1.6944000e+03 9.27589900e+01 7.81860800e-03 1.29630500e-01
       -2 -1    0    0    0  501 -0.0000000000e+00 +0.0000000000e+00 +1.1517288567e+01 1.1517288567e+01 0.0000000000e+00 0.0000e+00 1.0000e+00
        2 -1    0    0  501    0 +0.0000000000e+00 -0.0000000000e+00 -1.8676768741e+02 1.8676768741e+02 0.0000000000e+00 0.0000e+00 -1.0000e+00
       23  2    1    2    0    0 +0.0000000000e+00 +0.0000000000e+00 -1.7525039884e+02 1.9828497597e+02 9.2758985566e+01 0.0000e+00 0.0000e+00
      -11  1    3    3    0    0 -4.1928513305e+01 -1.1257193045e+01 -5.2739608244e+01 6.8309522769e+01 0.0000000000e+00 0.0000e+00 1.0000e+00
       11  1    3    3    0    0 +4.1928513305e+01 +1.1257193045e+01 -1.2251079060e+02 1.2997545320e+02 0.0000000000e+00 0.0000e+00 -1.0000e+00
<mgrwt>
<rscale>  0 0.92758986E+02</rscale>
<asrwt>0</asrwt>
<pdfrwt beam="2">  1        2 0.28733489E-01 0.92758986E+02</pdfrwt>
<pdfrwt beam="1">  1       -2 0.17718906E-02 0.92758986E+02</pdfrwt>
<totfact> 0.14406354E+05</totfact>
</mgrwt>
</event>
<event>
 5      1 +1.6944000e+03 8.95793300e+01 7.81860800e-03 1.30387400e-01
       -1 -1    0    0    0  501 -0.0000000000e+00 +0.0000000000e+00 +7.8156263591e+00 7.8156263591e+00 0.0000000000e+00 0.0000e+00 1.0000e+00
        1 -1    0    0  501    0 +0.0000000000e+00 -0.0000000000e+00 -2.5667986563e+02 2.5667986563e+02 0.0000000000e+00 0.0000e+00 -1.0000e+00
       23  2    1    2    0    0 +0.0000000000e+00 +0.0000000000e+00 -2.4886423927e+02 2.6449549199e+02 8.9579326268e+01 0.0000e+00 0.0000e+00
      -11  1    3    3    0    0 +7.9735022971e+00 +3.8528099649e+01 -6.1234401297e+01 7.2784909862e+01 0.0000000000e+00 0.0000e+00 1.0000e+00
       11  1    3    3    0    0 -7.9735022971e+00 -3.8528099649e+01 -1.8762983797e+02 1.9171058213e+02 0.0000000000e+00 0.0000e+00 -1.0000e+00
<mgrwt>
<rscale>  0 0.89579326E+02</rscale>
<asrwt>0</asrwt>
<pdfrwt beam="2">  1        1 0.39489201E-01 0.89579326E+02</pdfrwt>
<pdfrwt beam="1">  1       -1 0.12024043E-02 0.89579326E+02</pdfrwt>
<totfact> 0.13030544E+05</totfact>
</mgrwt>
</event>
<event>
 4      1 +1.6944000e+03 7.30263900e+01 7.81860800e-03 1.35009400e-01
        4 -1    0    0  501    0 +0.0000000000e+00 +0.0000000000e+00 +7.6588429350e+01 7.6588429350e+01 0.0000000000e+00 0.0000e+00 1.0000e+00
       -4 -1    0    0    0  501 -0.0000000000e+00 -0.0000000000e+00 -1.7407504269e+01 1.7407504269e+01 0.0000000000e+00 0.0000e+00 -1.0000e+00
      -11  1    1    2    0    0 +1.4573267671e+01 -1.9613515652e+00 +7.2608755443e+01 7.4082780709e+01 0.0000000000e+00 0.0000e+00 1.0000e+00
       11  1    1    2    0    0 -1.4573267671e+01 +1.9613515652e+00 -1.3427830362e+01 1.9913152910e+01 0.0000000000e+00 0.0000e+00 -1.0000e+00
<mgrwt>
<rscale>  0 0.73026390E+02</rscale>
<asrwt>0</asrwt>
<pdfrwt beam="1">  1        4 0.11782835E-01 0.73026390E+02</pdfrwt>
<pdfrwt beam="2">  1       -4 0.26780776E-02 0.73026390E+02</pdfrwt>
<totfact> 0.48513599E+04</totfact>
</mgrwt>
</event>
<event>
 4      1 +1.6944000e+03 2.02767600e+01 7.81860800e-03 1.73988000e-01
       -2 -1    0    0    0  501 -0.0000000000e+00 +0.0000000000e+00 +5.1045652723e+00 5.1045652723e+00 0.0000000000e+00 0.0000e+00 -1.0000e+00
        2 -1    0    0  501    0 +0.0000000000e+00 -0.0000000000e+00 -2.0136235453e+01 2.0136235453e+01 0.0000000000e+00 0.0000e+00 1.0000e+00
      -13  1    1    2    0    0 -5.5122724640e+00 -8.4498813156e+00 -8.7613254141e+00 1.3362128011e+01 0.0000000000e+00 0.0000e+00 1.0000e+00
       13  1    1    2    0    0 +5.5122724640e+00 +8.4498813156e+00 -6.2703447664e+00 1.1878672714e+01 0.0000000000e+00 0.0000e+00 -1.0000e+00
<mgrwt>
<rscale>  0 0.20276758E+02</rscale>
<asrwt>0</asrwt>
<pdfrwt beam="2">  1        2 0.30978824E-02 0.20276758E+02</pdfrwt>
<pdfrwt beam="1">  1       -2 0.78531772E-03 0.20276758E+02</pdfrwt>
<totfact> 0.40429324E+06</totfact>
</mgrwt>
</event>
<event>
 4      1 +1.6944000e+03 5.44583200e+01 7.81860800e-03 1.42267800e-01
       -4 -1    0    0    0  501 -0.0000000000e+00 +0.0000000000e+00 +9.4564849024e+00 9.4564849024e+00 0.0000000000e+00 0.0000e+00 1.0000e+00
        4 -1    0    0  501    0 +0.0000000000e+00 -0.0000000000e+00 -7.8404087213e+01 7.8404087213e+01 0.0000000000e+00 0.0000e+00 -1.0000e+00
      -13  1    1    2    0    0 +7.3020900117e+00 -1.4883000640e+01 +3.7625658991e-01 1.6582092618e+01 0.0000000000e+00 0.0000e+00 1.0000e+00
       13  1    1    2    0    0 -7.3020900117e+00 +1.4883000640e+01 -6.9323858901e+01 7.1278479497e+01 0.0000000000e+00 0.0000e+00 -1.0000e+00
<mgrwt>
<rscale>  0 0.54458317E+02</rscale>
<asrwt>0</asrwt>
<pdfrwt beam="2">  1        4 0.12062167E-01 0.54458317E+02</pdfrwt>
<pdfrwt beam="1">  1       -4 0.14548438E-02 0.54458317E+02</pdfrwt>
<totfact> 0.10456319E+05</totfact>
</mgrwt>
</event>
<event>
 5      1 +1.6944000e+03 8.97080600e+01 7.81860800e-03 1.30356000e-01
       -4 -1    0    0    0  501 -0.0000000000e+00 +0.0000000000e+00 +4.6449890639e+01 4.6449890639e+01 0.0000000000e+00 0.0000e+00 1.0000e+00
        4 -1    0    0  501    0 +0.0000000000e+00 -0.0000000000e+00 -4.3312994740e+01 4.3312994740e+01 0.0000000000e+00 0.0000e+00 -1.0000e+00
       23  2    1    2    0    0 +0.0000000000e+00 +0.0000000000e+00 +3.1368958988e+00 8.9762885378e+01 8.9708056915e+01 0.0000e+00 0.0000e+00
      -11  1    3    3    0    0 +3.6049546771e+01 -2.1177695616e+01 -1.4683993087e+01 4.4313477261e+01 0.0000000000e+00 0.0000e+00 -1.0000e+00
       11  1    3    3    0    0 -3.6049546771e+01 +2.1177695616e+01 +1.7820888985e+01 4.5449408117e+01 0.0000000000e+00 0.0000e+00 1.0000e+00
<mgrwt>
<rscale>  0 0.89708057E+02</rscale>
<asrwt>0</asrwt>
<pdfrwt beam="2">  1        4 0.66635377E-02 0.89708057E+02</pdfrwt>
<pdfrwt beam="1">  1       -4 0.71461370E-02 0.89708057E+02</pdfrwt>
<totfact> 0.28326408E+04</totfact>
</mgrwt>
</event>
<event>
 4      1 +1.6944000e+03 4.00088400e+01 7.81860800e-03 1.50814600e-01
        4 -1    0    0  501    0 +0.0000000000e+00 +0.0000000000e+00 +6.2705525656e+01 6.2705525656e+01 0.0000000000e+00 0.0000e+00 -1.0000e+00
       -4 -1    0    0    0  501 -0.0000000000e+00 -0.0000000000e+00 -6.3818443597e+00 6.3818443597e+00 0.0000000000e+00 0.0000e+00 1.0000e+00
      -13  1    1    2    0    0 +1.3561106866e+01 -4.1559397616e+00 +5.2521475566e+01 5.4402948912e+01 0.0000000000e+00 0.0000e+00 -1.0000e+00
       13  1    1    2    0    0 -1.3561106866e+01 +4.1559397616e+00 +3.8022057309e+00 1.4684421104e+01 0.0000000000e+00 0.0000e+00 1.0000e+00
<mgrwt>
<rscale>  0 0.40008844E+02</rscale>
<asrwt>0</asrwt>
<pdfrwt beam="1">  1        4 0.96470035E-02 0.40008844E+02</pdfrwt>
<pdfrwt beam="2">  1       -4 0.98182225E-03 0.40008844E+02</pdfrwt>
<totfact> 0.23396861E+05</totfact>
</mgrwt>
</event>
<event>
 5      1 +1.6944000e+03 9.00007100e+01 7.81860800e-03 1.30285000e-01
       -2 -1    0    0    0  501 -0.0000000000e+00 +0.0000000000e+00 +2.0161616013e+01 2.0161616013e+01 0.0000000000e+00 0.0000e+00 1.0000e+00
        2 -1    0    0  501    0 +0.0000000000e+00 -0.0000000000e+00 -1.0043996710e+02 1.0043996710e+02 0.0000000000e+00 0.0000e+00 -1.0000e+00
       23  2    1    2    0    0 +0.0000000000e+00 +0.0000000000e+00 -8.0278351092e+01 1.2060158312e+02 9.0000712199e+01 0.0000e+00 0.0000e+00
      -11  1    3    3    0    0 +4.4302124871e+01 -4.8206056425e+00 -4.8519903435e+01 6.5879416636e+01 0.0000000000e+00 0.0000e+00 1.0000e+00
       11  1    3    3    0    0 -4.4302124871e+01 +4.8206056425e+00 -3.1758447657e+01 5.4722166482e+01 0.0000000000e+00 0.0000e+00 -1.0000e+00
<mgrwt>
<rscale>  0 0.90000712E+02</rscale>
<asrwt>0</asrwt>
<pdfrwt beam="2">  1        2 0.15452303E-01 0.90000712E+02</pdfrwt>
<pdfrwt beam="1">  1       -2 0.31017871E-02 0.90000712E+02</pdfrwt>
<totfact> 0.12730214E+05</totfact>
</mgrwt>
</event>
<event>
 5      1 +1.6944000e+03 7.54221200e+01 7.81860800e-03 1.34256900e-01
       -4 -1    0    0    0  501 -0.0000000000e+00 +0.0000000000e+00 +3.9859794645e+01 3.9859794645e+01 0.0000000000e+00 0.0000e+00 1.0000e+00
        4 -1    0    0  501    0 +0.0000000000e+00 -0.0000000000e+00 -3.5678156300e+01 3.5678156300e+01 0.0000000000e+00 0.0000e+00 -1.0000e+00
       23  2    1    2    0    0 +0.0000000000e+00 +0.0000000000e+00 +4.1816383446e+00 7.5537950945e+01 7.5422118332e+01 0.0000e+00 0.0000e+00
      -13  1    3    3    0    0 -3.5080011906e+01 +1.1523681890e+01 -5.5839453349e+00 3.7344115000e+01 0.0000000000e+00 0.0000e+00 -1.0000e+00
       13  1    3    3    0    0 +3.5080011906e+01 -1.1523681890e+01 +9.7655836795e+00 3.8193835945e+01 0.0000000000e+00 0.0000e+00 1.0000e+00
<mgrwt>
<rscale>  0 0.75422118E+02</rscale>
<asrwt>0</asrwt>
<pdfrwt beam="2">  1        4 0.54889471E-02 0.75422118E+02</pdfrwt>
<pdfrwt beam="1">  1       -4 0.61322761E-02 0.75422118E+02</pdfrwt>
<totfact> 0.46700491E+04</totfact>
</mgrwt>
</event>
<event>
 5      1 +1.6944000e+03 9.15251900e+01 7.81860800e-03 1.29920000e-01
       -1 -1    0    0    0  501 -0.0000000000e+00 +0.0000000000e+00 +6.3319126195e+00 6.3319126195e+00 0.0000000000e+00 0.0000e+00 1.0000e+00
        1 -1    0    0  501    0 +0.0000000000e+00 -0.0000000000e+00 -3.3073976384e+02 3.3073976384e+02 0.0000000000e+00 0.0000e+00 -1.0000e+00
       23  2    1    2    0    0 +0.0000000000e+00 +0.0000000000e+00 -3.2440785122e+02 3.3707167646e+02 9.1525194006e+01 0.0000e+00 0.0000e+00
      -13  1    3    3    0    0 -1.0212220818e-01 +4.5201582347e+01 -1.3589764016e+02 1.4321788323e+02 0.0000000000e+00 0.0000e+00 -1.0000e+00
       13  1    3    3    0    0 +1.0212220818e-01 -4.5201582347e+01 -1.8851021107e+02 1.9385379324e+02 0.0000000000e+00 0.0000e+00 1.0000e+00
<mgrwt>
<rscale>  0 0.91525194E+02</rscale>
<asrwt>0</asrwt>
<pdfrwt beam="2">  1        1 0.50883054E-01 0.91525194E+02</pdfrwt>
<pdfrwt beam="1">  1       -1 0.97414014E-03 0.91525194E+02</pdfrwt>
<totfact> 0.12916820E+05</totfact>
</mgrwt>
</event>
<event>
 5      1 +1.6944000e+03 9.03513300e+01 7.81860800e-03 1.30200300e-01
       -1 -1    0    0    0  501 -0.0000000000e+00 +0.0000000000e+00 +1.6942144061e+02 1.6942144061e+02 0.0000000000e+00 0.0000e+00 1.0000e+00
        1 -1    0    0  501    0 +0.0000000000e+00 -0.0000000000e+00 -1.2045941412e+01 1.2045941412e+01 0.0000000000e+00 0.0000e+00 -1.0000e+00
       23  2    1    2    0    0 +0.0000000000e+00 +0.0000000000e+00 +1.5737549920e+02 1.8146738203e+02 9.0351330870e+01 0.0000e+00 0.0000e+00
      -11  1    3    3    0    0 +2.7124386571e+01 -2.9111167597e+01 +1.2165424750e+02 1.2799589197e+02 0.0000000000e+00 0.0000e+00 1.0000e+00
       11  1    3    3    0    0 -2.7124386571e+01 +2.9111167597e+01 +3.5721251698e+01 5.3471490054e+01 0.0000000000e+00 0.0000e+00 -1.0000e+00
<mgrwt>
<rscale>  0 0.90351331E+02</rscale>
<asrwt>0</asrwt>
<pdfrwt beam="2">  1        1 0.18532219E-02 0.90351331E+02</pdfrwt>
<pdfrwt beam="1">  1       -1 0.26064835E-01 0.90351331E+02</pdfrwt>
<totfact> 0.74336983E+04</totfact>
</mgrwt>
</event>
<event>
 5      1 +1.6944000e+03 9.12296000e+01 7.81860800e-03 1.29990100e-01
        2 -1    0    0  501    0 +0.0000000000e+00 +0.0000000000e+00 +2.8464171268e+02 2.8464171268e+02 0.0000000000e+00 0.0000e+00 -1.0000e+00
       -2 -1    0    0    0  501 -0.0000000000e+00 -0.0000000000e+00 -7.3099263649e+00 7.3099263649e+00 0.0000000000e+00 0.0000e+00 1.0000e+00
       23  2    1    2    0    0 +0.0000000000e+00 +0.0000000000e+00 +2.7733178632e+02 2.9195163905e+02 9.1229599585e+01 0.0000e+00 0.0000e+00
      -13  1    3    3    0    0 +1.1583545319e+00 -4.0515414244e+01 +7.1700960119e+01 8.2364241383e+01 0.0000000000e+00 0.0000e+00 1.0000e+00
       13  1    3    3    0    0 -1.1583545319e+00 +4.0515414244e+01 +2.0563082620e+02 2.0958739766e+02 0.0000000000e+00 0.0000e+00 -1.0000e+00
<mgrwt>
<rscale>  0 0.91229600E+02</rscale>
<asrwt>0</asrwt>
<pdfrwt beam="1">  1        2 0.43791024E-01 0.91229600E+02</pdfrwt>
<pdfrwt beam="2">  1       -2 0.11246043E-02 0.91229600E+02</pdfrwt>
<totfact> 0.17590245E+05</totfact>
</mgrwt>
</event>
<event>
 5      1 +1.6944000e+03 9.12350500e+01 7.81860800e-03 1.29988800e-01
       -4 -1    0    0    0  501 -0.0000000000e+00 +0.0000000000e+00 +2.3459592419e+02 2.3459592419e+02 0.0000000000e+00 0.0000e+00 -1.0000e+00
        4 -1    0    0  501    0 +0.0000000000e+00 -0.0000000000e+00 -8.8703945454e+00 8.8703945454e+00 0.0000000000e+00 0.0000e+00 1.0000e+00
       23  2    1    2    0    0 +0.0000000000e+00 +0.0000000000e+00 +2.2572552964e+02 2.4346631874e+02 9.1235046036e+01 0.0000e+00 0.0000e+00
      -11  1    3    3    0    0 +2.9025922474e+01 -2.6066988730e+01 +1.7595414348e+02 1.8022722515e+02 0.0000000000e+00 0.0000e+00 -1.0000e+00
       11  1    3    3    0    0 -2.9025922474e+01 +2.6066988730e+01 +4.9771386162e+01 6.3239093584e+01 0.0000000000e+00 0.0000e+00 1.0000e+00
<mgrwt>
<rscale>  0 0.91235046E+02</rscale>
<asrwt>0</asrwt>
<pdfrwt beam="2">  1        4 0.13646763E-02 0.91235046E+02</pdfrwt>
<pdfrwt beam="1">  1       -4 0.36091676E-01 0.91235046E+02</pdfrwt>
<totfact> 0.19663999E+04</totfact>
</mgrwt>
</event>
<event>
 4      1 +1.6944000e+03 2.36944900e+01 7.81860800e-03 1.68049400e-01
        1 -1    0    0  501    0 +0.0000000000e+00 +0.0000000000e+00 +1.3798773275e+01 1.3798773275e+01 0.0000000000e+00 0.0000e+00 -1.0000e+00
       -1 -1    0    0    0  501 -0.0000000000e+00 -0.0000000000e+00 -1.0171713557e+01 1.0171713557e+01 0.0000000000e+00 0.0000e+00 1.0000e+00
      -11  1    1    2    0    0 +9.9017384893e+00 +5.9493824854e+00 -8.4723829749e-01 1.1582633112e+01 0.0000000000e+00 0.0000e+00 1.0000e+00
       11  1    1    2    0    0 -9.9017384893e+00 -5.9493824854e+00 +4.4742980157e+00 1.2387853721e+01 0.0000000000e+00 0.0000e+00 -1.0000e+00
<mgrwt>
<rscale>  0 0.23694486E+02</rscale>
<asrwt>0</asrwt>
<pdfrwt beam="1">  1        1 0.21228882E-02 0.23694486E+02</pdfrwt>
<pdfrwt beam="2">  1       -1 0.15648790E-02 0.23694486E+02</pdfrwt>
<totfact> 0.26525720E+06</totfact>
</mgrwt>
</event>
<event>
 5      1 +1.6944000e+03 8.85390800e+01 7.81860800e-03 1.30642900e-01
       -3 -1    0    0    0  501 -0.0000000000e+00 +0.0000000000e+00 +1.7733448354e+02 1.7733448354e+02 0.0000000000e+00 0.0000e+00 1.0000e+00
        3 -1    0    0  501    0 +0.0000000000e+00 -0.0000000000e+00 -1.1051386895e+01 1.1051386895e+01 0.0000000000e+00 0.0000e+00 -1.0000e+00
       23  2    1    2    0    0 +0.0000000000e+00 +0.0000000000e+00 +1.6628309665e+02 1.8838587044e+02 8.8539075836e+01 0.0000e+00 0.0000e+00
      -11  1    3    3    0    0 +6.9864682323e-01 +4.4260682244e+01 +8.1984166700e+01 9.3171345861e+01 0.0000000000e+00 0.0000e+00 -1.0000e+00
       11  1    3    3    0    0 -6.9864682323e-01 -4.4260682244e+01 +8.4298929948e+01 9.5214524577e+01 0.0000000000e+00 0.0000e+00 1.0000e+00
<mgrwt>
<rscale>  0 0.88539076E+02</rscale>
<asrwt>0</asrwt>
<pdfrwt beam="2">  1        3 0.17002135E-02 0.88539076E+02</pdfrwt>
<pdfrwt beam="1">  1       -3 0.27282226E-01 0.88539076E+02</pdfrwt>
<totfact> 0.31503278E+04</totfact>
</mgrwt>
</event>
<event>
 5      1 +1.6944000e+03 9.08182000e+01 7.81860800e-03 1.30088200e-01
       -1 -1    0    0    0  501 -0.0000000000e+00 +0.0000000000e+00 +8.1870638988e+01 8.1870638988e+01 0.0000000000e+00 0.0000e+00 1.0000e+00
        1 -1    0    0  501    0 +0.0000000000e+00 -0.0000000000e+00 -2.5185910090e+01 2.5185910090e+01 0.0000000000e+00 0.0000e+00 -1.0000e+00
       23  2    1    2    0    0 +0.0000000000e+00 +0.0000000000e+00 +5.6684728898e+01 1.0705654908e+02 9.0818204180e+01 0.0000e+00 0.0000e+00
      -11  1    3    3    0    0 -4.5188562497e+01 +4.0283229071e+00 +2.6058718154e+01 5.2319120385e+01 0.0000000000e+00 0.0000e+00 1.0000e+00
       11  1    3    3    0    0 +4.5188562497e+01 -4.0283229071e+00 +3.0626010744e+01 5.4737428694e+01 0.0000000000e+00 0.0000e+00 -1.0000e+00
<mgrwt>
<rscale>  0 0.90818204E+02</rscale>
<asrwt>0</asrwt>
<pdfrwt beam="2">  1        1 0.38747554E-02 0.90818204E+02</pdfrwt>
<pdfrwt beam="1">  1       -1 0.12595483E-01 0.90818204E+02</pdfrwt>
<totfact> 0.85174364E+04</totfact>
</mgrwt>
</event>
<event>
 5      1 +1.6944000e+03 1.14889600e+02 7.81860800e-03 1.25177400e-01
       -1 -1    0    0    0  501 -0.0000000000e+00 +0.0000000000e+00 +1.5006582344e+01 1.5006582344e+01 0.0000000000e+00 0.0000e+00 1.0000e+00
        1 -1    0    0  501    0 +0.0000000000e+00 -0.0000000000e+00 -2.1989724254e+02 2.1989724254e+02 0.0000000000e+00 0.0000e+00 -1.0000e+00
       23  2    1    2    0    0 +0.0000000000e+00 +0.0000000000e+00 -2.0489066019e+02 2.3490382488e+02 1.1488961793e+02 0.0000e+00 0.0000e+00
      -13  1    3    3    0    0 +5.5847872979e+01 +6.4359213041e+00 -1.2659418423e+02 1.3851531858e+02 0.0000000000e+00 0.0000e+00 -1.0000e+00
       13  1    3    3    0    0 -5.5847872979e+01 -6.4359213041e+00 -7.8296475963e+01 9.6388506304e+01 0.0000000000e+00 0.0000e+00 1.0000e+00
<mgrwt>
<rscale>  0 0.11488962E+03</rscale>
<asrwt>0</asrwt>
<pdfrwt beam="2">  1        1 0.33830344E-01 0.11488962E+03</pdfrwt>
<pdfrwt beam="1">  1       -1 0.23087051E-02 0.11488962E+03</pdfrwt>
<totfact> 0.64421121E+04</totfact>
</mgrwt>
</event>
<event>
 4      1 +1.6944000e+03 2.75612000e+01 7.81860800e-03 1.62672400e-01
       -2 -1    0    0    0  501 -0.0000000000e+00 +0.0000000000e+00 +5.3895628332e+00 5.3895628332e+00 0.0000000000e+00 0.0000e+00 -1.0000e+00
        2 -1    0    0  501    0 +0.0000000000e+00 -0.0000000000e+00 -3.5235696738e+01 3.5235696738e+01 0.0000000000e+00 0.0000e+00 1.0000e+00
      -13  1    1    2    0    0 +1.2123624643e+01 -6.2585153963e+00 -1.7778871178e+01 2.2410701680e+01 0.0000000000e+00 0.0000e+00 -1.0000e+00
       13  1    1    2    0    0 -1.2123624643e+01 +6.2585153963e+00 -1.2067262727e+01 1.8214557891e+01 0.0000000000e+00 0.0000e+00 1.0000e+00
<mgrwt>
<rscale>  0 0.27561205E+02</rscale>
<asrwt>0</asrwt>
<pdfrwt beam="2">  1        2 0.54208763E-02 0.27561205E+02</pdfrwt>
<pdfrwt beam="1">  1       -2 0.82916353E-03 0.27561205E+02</pdfrwt>
<totfact> 0.21119313E+06</totfact>
</mgrwt>
</event>
<event>
 5      1 +1.6944000e+03 9.19705100e+01 7.81860800e-03 1.29814900e-01
       -1 -1    0    0    0  501 -0.0000000000e+00 +0.0000000000e+00 +8.8786217565e+00 8.8786217565e+00 0.0000000000e+00 0.0000e+00 1.0000e+00
        1 -1    0    0  501    0 +0.0000000000e+00 -0.0000000000e+00 -2.3817249227e+02 2.3817249227e+02 0.0000000000e+00 0.0000e+00 -1.0000e+00
       23  2    1    2    0    0 +0.0000000000e+00 +0.0000000000e+00 -2.2929387052e+02 2.4705111403e+02 9.1970505526e+01 0.0000e+00 0.0000e+00
      -11  1    3    3    0    0 -2.6781034801e+01 +2.5945262989e+01 -1.8693829359e+02 1.9062084384e+02 0.0000000000e+00 0.0000e+00 -1.0000e+00
       11  1    3    3    0    0 +2.6781034801e+01 -2.5945262989e+01 -4.2355576924e+01 5.6430270185e+01 0.0000000000e+00 0.0000e+00 1.0000e+00
<mgrwt>
<rscale>  0 0.91970506E+02</rscale>
<asrwt>0</asrwt>
<pdfrwt beam="2">  1        1 0.36641922E-01 0.91970506E+02</pdfrwt>
<pdfrwt beam="1">  1       -1 0.13659418E-02 0.91970506E+02</pdfrwt>
<totfact> 0.11969768E+05</totfact>
</mgrwt>
</event>
<event>
 5      1 +1.6944000e+03 9.00813200e+01 7.81860800e-03 1.30265500e-01
        4 -1    0    0  501    0 +0.0000000000e+00 +0.0000000000e+00 +7.8241516761e+01 7.8241516761e+01 0.0000000000e+00 0.0000e+00 -1.0000e+00
       -4 -1    0    0    0  501 -0.0000000000e+00 -0.0000000000e+00 -2.5928190267e+01 2.5928190267e+01 0.0000000000e+00 0.0000e+00 1.0000e+00
       23  2    1    2    0    0 +0.0000000000e+00 +0.0000000000e+00 +5.2313326494e+01 1.0416970703e+02 9.0081317339e+01 0.0000e+00 0.0000e+00
      -13  1    3    3    0    0 -1.6182315136e+01 +4.1051967909e+01 +1.5715131510e+01 4.6841186479e+01 0.0000000000e+00 0.0000e+00 -1.0000e+00
       13  1    3    3    0    0 +1.6182315136e+01 -4.1051967909e+01 +3.6598194984e+01 5.7328520550e+01 0.0000000000e+00 0.0000e+00 1.0000e+00
<mgrwt>
<rscale>  0 0.90081317E+02</rscale>
<asrwt>0</asrwt>
<pdfrwt beam="1">  1        4 0.12037156E-01 0.90081317E+02</pdfrwt>
<pdfrwt beam="2">  1       -4 0.39889524E-02 0.90081317E+02</pdfrwt>
<totfact> 0.27072397E+04</totfact>
</mgrwt>
</event>
<event>
 4      1 +1.6944000e+03 3.73971400e+01 7.81860800e-03 1.52828900e-01
       -3 -1    0    0    0  501 -0.0000000000e+00 +0.0000000000e+00 +1.1447200808e+01 1.1447200808e+01 0.0000000000e+00 0.0000e+00 -1.0000e+00
        3 -1    0    0  501    0 +0.0000000000e+00 -0.0000000000e+00 -3.0543414672e+01 3.0543414672e+01 0.0000000000e+00 0.0000e+00 1.0000e+00
      -13  1    1    2    0    0 +1.2648884514e+01 +8.4401751363e+00 -2.1766109849e+01 2.6551730146e+01 0.0000000000e+00 0.0000e+00 1.0000e+00
       13  1    1    2    0    0 -1.2648884514e+01 -8.4401751363e+00 +2.6698959848e+00 1.5438885334e+01 0.0000000000e+00 0.0000e+00 -1.0000e+00
<mgrwt>
<rscale>  0 0.37397144E+02</rscale>
<asrwt>0</asrwt>
<pdfrwt beam="2">  1        3 0.46989869E-02 0.37397144E+02</pdfrwt>
<pdfrwt beam="1">  1       -3 0.17611078E-02 0.37397144E+02</pdfrwt>
<totfact> 0.39642389E+05</totfact>
</mgrwt>
</event>
<event>
 5      1 +1.6944000e+03 9.05772500e+01 7.81860800e-03 1.30146000e-01
        3 -1    0    0  501    0 +0.0000000000e+00 +0.0000000000e+00 +6.8074944845e+01 6.8074944845e+01 0.0000000000e+00 0.0000e+00 -1.0000e+00
       -3 -1    0    0    0  501 -0.0000000000e+00 -0.0000000000e+00 -3.0129431074e+01 3.0129431074e+01 0.0000000000e+00 0.0000e+00 1.0000e+00
       23  2    1    2    0    0 +0.0000000000e+00 +0.0000000000e+00 +3.7945513771e+01 9.8204375919e+01 9.0577245677e+01 0.0000e+00 0.0000e+00
      -13  1    3    3    0    0 +1.6535734100e+01 -2.4577600769e+01 +5.6114843872e+01 6.3453641854e+01 0.0000000000e+00 0.0000e+00 -1.0000e+00
       13  1    3    3    0    0 -1.6535734100e+01 +2.4577600769e+01 -1.8169330101e+01 3.4750734065e+01 0.0000000000e+00 0.0000e+00 1.0000e+00
<mgrwt>
<rscale>  0 0.90577246E+02</rscale>
<asrwt>0</asrwt>
<pdfrwt beam="1">  1        3 0.10473068E-01 0.90577246E+02</pdfrwt>
<pdfrwt beam="2">  1       -3 0.46352971E-02 0.90577246E+02</pdfrwt>
<totfact> 0.35434627E+04</totfact>
</mgrwt>
</event>
<event>
 4      1 +1.6944000e+03 1.68363500e+02 7.81860800e-03 1.17956500e-01
        4 -1    0    0  501    0 +0.0000000000e+00 +0.0000000000e+00 +9.2192066634e+01 9.2192066634e+01 0.0000000000e+00 0.0000e+00 -1.0000e+00
       -4 -1    0    0    0  501 -0.0000000000e+00 -0.0000000000e+00 -7.6867429773e+01 7.6867429773e+01 0.0000000000e+00 0.0000e+00 1.0000e+00
      -11  1    1    2    0    0 -1.3747868488e+01 +2.5952587476e+01 -7.1556313401e+01 7.7348863419e+01 0.0000000000e+00 0.0000e+00 1.0000e+00
       11  1    1    2    0    0 +1.3747868488e+01 -2.5952587476e+01 +8.6880950262e+01 9.1710632988e+01 0.0000000000e+00 0.0000e+00 -1.0000e+00
<mgrwt>
<rscale>  0 0.16836350E+03</rscale>
<asrwt>0</asrwt>
<pdfrwt beam="1">  1        4 0.14183395E-01 0.16836350E+03</pdfrwt>
<pdfrwt beam="2">  1       -4 0.11825758E-01 0.16836350E+03</pdfrwt>
<totfact> 0.40711953E+03</totfact>
</mgrwt>
</event>
<event>
 5      1 +1.6944000e+03 9.05741200e+01 7.81860800e-03 1.30146700e-01
        2 -1    0    0  501    0 +0.0000000000e+00 +0.0000000000e+00 +2.9428415431e+01 2.9428415431e+01 0.0000000000e+00 0.0000e+00 1.0000e+00
       -2 -1    0    0    0  501 -0.0000000000e+00 -0.0000000000e+00 -6.9691753373e+01 6.9691753373e+01 0.0000000000e+00 0.0000e+00 -1.0000e+00
       23  2    1    2    0    0 +0.0000000000e+00 +0.0000000000e+00 -4.0263337943e+01 9.9120168804e+01 9.0574121478e+01 0.0000e+00 0.0000e+00
      -13  1    3    3    0    0 +1.5904261391e+01 +2.9830270290e+01 +1.2846859405e+01 3.6163964834e+01 0.0000000000e+00 0.0000e+00 1.0000e+00
       13  1    3    3    0    0 -1.5904261391e+01 -2.9830270290e+01 -5.3110197348e+01 6.2956203970e+01 0.0000000000e+00 0.0000e+00 -1.0000e+00
<mgrwt>
<rscale>  0 0.90574121E+02</rscale>
<asrwt>0</asrwt>
<pdfrwt beam="1">  1        2 0.45274486E-02 0.90574121E+02</pdfrwt>
<pdfrwt beam="2">  1       -2 0.10721808E-01 0.90574121E+02</pdfrwt>
<totfact> 0.89762257E+04</totfact>
</mgrwt>
</event>
<event>
 4      1 +1.6944000e+03 3.01621600e+01 7.81860800e-03 1.59630300e-01
        2 -1    0    0  501    0 +0.0000000000e+00 +0.0000000000e+00 +1.2095468330e+01 1.2095468330e+01 0.0000000000e+00 0.0000e+00 1.0000e+00
       -2 -1    0    0    0  501 -0.0000000000e+00 -0.0000000000e+00 -1.8803649741e+01 1.8803649741e+01 0.0000000000e+00 0.0000e+00 -1.0000e+00
      -11  1    1    2    0    0 -1.3200310651e+01 -7.1784651232e+00 -4.6741345208e+00 1.5736139816e+01 0.0000000000e+00 0.0000e+00 -1.0000e+00
       11  1    1    2    0    0 +1.3200310651e+01 +7.1784651232e+00 -2.0340468909e+00 1.5162978255e+01 0.0000000000e+00 0.0000e+00 1.0000e+00
<mgrwt>
<rscale>  0 0.30162158E+02</rscale>
<asrwt>0</asrwt>
<pdfrwt beam="1">  1        2 0.18608413E-02 0.30162158E+02</pdfrwt>
<pdfrwt beam="2">  1       -2 0.28928692E-02 0.30162158E+02</pdfrwt>
<totfact> 0.15112907E+06</totfact>
</mgrwt>
</event>
<event>
 4      1 +1.6944000e+03 2.48430100e+01 7.81860800e-03 1.66326700e-01
       -2 -1    0    0    0  501 -0.0000000000e+00 +0.0000000000e+00 +3.1077691176e+01 3.1077691176e+01 0.0000000000e+00 0.0000e+00 1.0000e+00
        2 -1    0    0  501    0 +0.0000000000e+00 -0.0000000000e+00 -4.9647766635e+00 4.9647766635e+00 0.0000000000e+00 0.0000e+00 -1.0000e+00
      -11  1    1    2    0    0 -8.5057552306e+00 -8.4811905614e+00 +8.4650804571e+00 1.4694762758e+01 0.0000000000e+00 0.0000e+00 1.0000e+00
       11  1    1    2    0    0 +8.5057552306e+00 +8.4811905614e+00 +1.7647834056e+01 2.1347705081e+01 0.0000000000e+00 0.0000e+00 -1.0000e+00
<mgrwt>
<rscale>  0 0.24843011E+02</rscale>
<asrwt>0</asrwt>
<pdfrwt beam="2">  1        2 0.76381181E-03 0.24843011E+02</pdfrwt>
<pdfrwt beam="1">  1       -2 0.47811831E-02 0.24843011E+02</pdfrwt>
<totfact> 0.22228315E+06</totfact>
</mgrwt>
</event>
<event>
 5      1 +1.6944000e+03 9.25691000e+01 7.81860800e-03 1.29674700e-01
       -4 -1    0    0    0  501 -0.0000000000e+00 +0.0000000000e+00 +1.5950760933e+01 1.5950760933e+01 0.0000000000e+00 0.0000e+00 1.0000e+00
        4 -1    0    0  501    0 +0.0000000000e+00 -0.0000000000e+00 -1.3430454634e+02 1.3430454634e+02 0.0000000000e+00 0.0000e+00 -1.0000e+00
       23  2    1    2    0    0 +0.0000000000e+00 +0.0000000000e+00 -1.1835378540e+02 1.5025530727e+02 9.2569103070e+01 0.0000e+00 0.0000e+00
      -13  1    3    3    0    0 -8.5074647555e-02 +2.0925423338e+01 -1.2618801155e+02 1.2791127722e+02 0.0000000000e+00 0.0000e+00 -1.0000e+00
       13  1    3    3    0    0 +8.5074647555e-02 -2.0925423338e+01 +7.8342261505e+00 2.2344030051e+01 0.0000000000e+00 0.0000e+00 1.0000e+00
<mgrwt>
<rscale>  0 0.92569103E+02</rscale>
<asrwt>0</asrwt>
<pdfrwt beam="2">  1        4 0.20662239E-01 0.92569103E+02</pdfrwt>
<pdfrwt beam="1">  1       -4 0.24539631E-02 0.92569103E+02</pdfrwt>
<totfact> 0.22712249E+04</totfact>
</mgrwt>
</event>
<event>
 5      1 +1.6944000e+03 9.18240700e+01 7.81860800e-03 1.29849400e-01
       -1 -1    0    0    0  501 -0.0000000000e+00 +0.0000000000e+00 +4.3774817840e+01 4.3774817840e+01 0.0000000000e+00 0.0000e+00 1.0000e+00
        1 -1    0    0  501    0 +0.0000000000e+00 -0.0000000000e+00 -4.8153597743e+01 4.8153597743e+01 0.0000000000e+00 0.0000e+00 -1.0000e+00
       23  2    1    2    0    0 +0.0000000000e+00 +0.0000000000e+00 -4.3787799027e+00 9.1928415583e+01 9.1824070255e+01 0.0000e+00 0.0000e+00
      -13  1    3    3    0    0 +1.6558738690e+01 -4.3243135745e+00 +4.0462114636e+01 4.3932610163e+01 0.0000000000e+00 0.0000e+00 1.0000e+00
       13  1    3    3    0    0 -1.6558738690e+01 +4.3243135745e+00 -4.4840894539e+01 4.7995805420e+01 0.0000000000e+00 0.0000e+00 -1.0000e+00
<mgrwt>
<rscale>  0 0.91824070E+02</rscale>
<asrwt>0</asrwt>
<pdfrwt beam="2">  1        1 0.74082458E-02 0.91824070E+02</pdfrwt>
<pdfrwt beam="1">  1       -1 0.67345874E-02 0.91824070E+02</pdfrwt>
<totfact> 0.91404616E+04</totfact>
</mgrwt>
</event>
<event>
 5      1 +1.6944000e+03 9.05388800e+01 7.81860800e-03 1.30155200e-01
        1 -1    0    0  501    0 +0.0000000000e+00 +0.0000000000e+00 +4.5864309397e+01 4.5864309397e+01 0.0000000000e+00 0.0000e+00 -1.0000e+00
       -1 -1    0    0    0  501 -0.0000000000e+00 -0.0000000000e+00 -4.4682290981e+01 4.4682290981e+01 0.0000000000e+00 0.0000e+00 1.0000e+00
       23  2    1    2    0    0 +0.0000000000e+00 +0.0000000000e+00 +1.1820184162e+00 9.0546600378e+01 9.0538884864e+01 0.0000e+00 0.0000e+00
      -11  1    3    3    0    0 -1.5676078915e+01 -1.0159357044e+01 -4.0648052954e+01 4.4734954953e+01 0.0000000000e+00 0.0000e+00 1.0000e+00
       11  1    3    3    0    0 +1.5676078915e+01 +1.0159357044e+01 +4.1830071370e+01 4.5811645425e+01 0.0000000000e+00 0.0000e+00 -1.0000e+00
<mgrwt>
<rscale>  0 0.90538885E+02</rscale>
<asrwt>0</asrwt>
<pdfrwt beam="1">  1        1 0.70560476E-02 0.90538885E+02</pdfrwt>
<pdfrwt beam="2">  1       -1 0.68741986E-02 0.90538885E+02</pdfrwt>
<totfact> 0.94395830E+04</totfact>
</mgrwt>
</event>
<event>
 4      1 +1.6944000e+03 2.75060600e+01 7.81860800e-03 1.62741400e-01
       -4 -1    0    0    0  501 -0.0000000000e+00 +0.0000000000e+00 +1.9096715639e+00 1.9096715639e+00 0.0000000000e+00 0.0000e+00 -1.0000e+00
        4 -1    0    0  501    0 +0.0000000000e+00 -0.0000000000e+00 -9.9046253880e+01 9.9046253880e+01 0.0000000000e+00 0.0000e+00 1.0000e+00
      -11  1    1    2    0    0 +4.2986704706e+00 -1.1435647939e+01 -7.1750398048e+01 7.2783049068e+01 0.0000000000e+00 0.0000e+00 1.0000e+00
       11  1    1    2    0    0 -4.2986704706e+00 +1.1435647939e+01 -2.5386184269e+01 2.8172876377e+01 0.0000000000e+00 0.0000e+00 -1.0000e+00
<mgrwt>
<rscale>  0 0.27506059E+02</rscale>
<asrwt>0</asrwt>
<pdfrwt beam="2">  1        4 0.15237884E-01 0.27506059E+02</pdfrwt>
<pdfrwt beam="1">  1       -4 0.29379565E-03 0.27506059E+02</pdfrwt>
<totfact> 0.50175973E+05</totfact>
</mgrwt>
</event>
<event>
 5      1 +1.6944000e+03 9.38808600e+01 7.81860800e-03 1.29371700e-01
       -1 -1    0    0    0  501 -0.0000000000e+00 +0.0000000000e+00 +1.0240108806e+01 1.0240108806e+01 0.0000000000e+00 0.0000e+00 1.0000e+00
        1 -1    0    0  501    0 +0.0000000000e+00 -0.0000000000e+00 -2.1517388752e+02 2.1517388752e+02 0.0000000000e+00 0.0000e+00 -1.0000e+00
       23  2    1    2    0    0 +0.0000000000e+00 +0.0000000000e+00 -2.0493377871e+02 2.2541399633e+02 9.3880861102e+01 0.0000e+00 0.0000e+00
      -13  1    3    3    0    0 +3.1072545452e+01 -3.5180456402e+01 -1.0129940204e+02 1.1164558410e+02 0.0000000000e+00 0.0000e+00 -1.0000e+00
       13  1    3    3    0    0 -3.1072545452e+01 +3.5180456402e+01 -1.0363437667e+02 1.1376841223e+02 0.0000000000e+00 0.0000e+00 1.0000e+00
<mgrwt>
<rscale>  0 0.93880861E+02</rscale>
<asrwt>0</asrwt>
<pdfrwt beam="2">  1        1 0.33103673E-01 0.93880861E+02</pdfrwt>
<pdfrwt beam="1">  1       -1 0.15754015E-02 0.93880861E+02</pdfrwt>
<totfact> 0.11103973E+05</totfact>
</mgrwt>
</event>
<event>
 4      1 +1.6944000e+03 2.19257000e+01 7.81860800e-03 1.70954000e-01
       -1 -1    0    0    0  501 -0.0000000000e+00 +0.0000000000e+00 +3.4354830966e+00 3.4354830966e+00 0.0000000000e+00 0.0000e+00 1.0000e+00
        1 -1    0    0  501    0 +0.0000000000e+00 -0.0000000000e+00 -3.4983164592e+01 3.4983164592e+01 0.0000000000e+00 0.0000e+00 -1.0000e+00
      -13  1    1    2    0    0 -9.3202203886e+00 -5.6340800166e+00 -1.3575028171e+01 1.7403756938e+01 0.0000000000e+00 0.0000e+00 -1.0000e+00
       13  1    1    2    0    0 +9.3202203886e+00 +5.6340800166e+00 -1.7972653325e+01 2.1014890751e+01 0.0000000000e+00 0.0000e+00 1.0000e+00
<mgrwt>
<rscale>  0 0.21925699E+02</rscale>
<asrwt>0</asrwt>
<pdfrwt beam="2">  1        1 0.53820254E-02 0.21925699E+02</pdfrwt>
<pdfrwt beam="1">  1       -1 0.52853585E-03 0.21925699E+02</pdfrwt>
<totfact> 0.33167363E+06</totfact>
</mgrwt>
</event>
<event>
 5      1 +1.6944000e+03 9.10916100e+01 7.81860800e-03 1.30023000e-01
       -2 -1    0    0    0  501 -0.0000000000e+00 +0.0000000000e+00 +1.6055224722e+01 1.6055224722e+01 0.0000000000e+00 0.0000e+00 -1.0000e+00
        2 -1    0    0  501    0 +0.0000000000e+00 -0.0000000000e+00 -1.2920531848e+02 1.2920531848e+02 0.0000000000e+00 0.0000e+00 1.0000e+00
       23  2    1    2    0    0 +0.0000000000e+00 +0.0000000000e+00 -1.1315009376e+02 1.4526054320e+02 9.1091611545e+01 0.0000e+00 0.0000e+00
      -13  1    3    3    0    0 +1.1229399059e+01 -3.2535168884e+01 -1.0414267834e+02 1.0968287956e+02 0.0000000000e+00 0.0000e+00 1.0000e+00
       13  1    3    3    0    0 -1.1229399059e+01 +3.2535168884e+01 -9.0074154207e+00 3.5577663640e+01 0.0000000000e+00 0.0000e+00 -1.0000e+00
<mgrwt>
<rscale>  0 0.91091612E+02</rscale>
<asrwt>0</asrwt>
<pdfrwt beam="2">  1        2 0.19877741E-01 0.91091612E+02</pdfrwt>
<pdfrwt beam="1">  1       -2 0.24700347E-02 0.91091612E+02</pdfrwt>
<totfact> 0.13335291E+05</totfact>
</mgrwt>
</event>
<event>
 4      1 +1.6944000e+03 2.72990200e+01 7.81860800e-03 1.63001900e-01
        2 -1    0    0  501    0 +0.0000000000e+00 +0.0000000000e+00 +1.1219808070e+02 1.1219808070e+02 0.0000000000e+00 0.0000e+00 -1.0000e+00
       -2 -1    0    0    0  501 -0.0000000000e+00 -0.0000000000e+00 -1.6605380027e+00 1.6605380027e+00 0.0000000000e+00 0.0000e+00 1.0000e+00
      -11  1    1    2    0    0 -3.0355183765e+00 -1.2550483756e+01 +7.3724319029e+01 7.4846537866e+01 0.0000000000e+00 0.0000e+00 1.0000e+00
       11  1    1    2    0    0 +3.0355183765e+00 +1.2550483756e+01 +3.6813223671e+01 3.9012080839e+01 0.0000000000e+00 0.0000e+00 -1.0000e+00
<mgrwt>
<rscale>  0 0.27299024E+02</rscale>
<asrwt>0</asrwt>
<pdfrwt beam="1">  1        2 0.17261237E-01 0.27299024E+02</pdfrwt>
<pdfrwt beam="2">  1       -2 0.25546747E-03 0.27299024E+02</pdfrwt>
<totfact> 0.26803514E+06</totfact>
</mgrwt>
</event>
<event>
 5      1 +1.6944000e+03 9.19124600e+01 7.81860800e-03 1.29828500e-01
        1 -1    0    0  501    0 +0.0000000000e+00 +0.0000000000e+00 +8.0465258383e+01 8.0465258383e+01 0.0000000000e+00 0.0000e+00 -1.0000e+00
       -1 -1    0    0    0  501 -0.0000000000e+00 -0.0000000000e+00 -2.6247044078e+01 2.6247044078e+01 0.0000000000e+00 0.0000e+00 1.0000e+00
       23  2    1    2    0    0 +0.0000000000e+00 +0.0000000000e+00 +5.4218214305e+01 1.0671230246e+02 9.1912462344e+01 0.0000e+00 0.0000e+00
      -13  1    3    3    0    0 +2.4771809782e+01 +3.1609850182e+01 +5.3048250251e+01 6.6535269167e+01 0.0000000000e+00 0.0000e+00 -1.0000e+00
       13  1    3    3    0    0 -2.4771809782e+01 -3.1609850182e+01 +1.1699640542e+00 4.0177033294e+01 0.0000000000e+00 0.0000e+00 1.0000e+00
<mgrwt>
<rscale>  0 0.91912462E+02</rscale>
<asrwt>0</asrwt>
<pdfrwt beam="1">  1        1 0.12379270E-01 0.91912462E+02</pdfrwt>
<pdfrwt beam="2">  1       -1 0.40380068E-02 0.91912462E+02</pdfrwt>
<totfact> 0.98633850E+04</totfact>
</mgrwt>
</event>
<event>
 4      1 +1.6944000e+03 3.29165600e+01 7.81860800e-03 1.56792100e-01
        2 -1    0    0  501    0 +0.0000000000e+00 +0.0000000000e+00 +3.7433492079e+01 3.7433492079e+01 0.0000000000e+00 0.0000e+00 -1.0000e+00
       -2 -1    0    0    0  501 -0.0000000000e+00 -0.0000000000e+00 -7.2361673774e+00 7.2361673774e+00 0.0000000000e+00 0.0000e+00 1.0000e+00
      -13  1    1    2    0    0 -3.6623876349e+00 -1.1290691629e+01 +3.0570437196e+01 3.2793969430e+01 0.0000000000e+00 0.0000e+00 -1.0000e+00
       13  1    1    2    0    0 +3.6623876349e+00 +1.1290691629e+01 -3.7311249434e-01 1.1875690026e+01 0.0000000000e+00 0.0000e+00 1.0000e+00
<mgrwt>
<rscale>  0 0.32916562E+02</rscale>
<asrwt>0</asrwt>
<pdfrwt beam="1">  1        2 0.57589987E-02 0.32916562E+02</pdfrwt>
<pdfrwt beam="2">  1       -2 0.11132565E-02 0.32916562E+02</pdfrwt>
<totfact> 0.13914189E+06</totfact>
</mgrwt>
</event>
<event>
 5      1 +1.6944000e+03 9.31289400e+01 7.81860800e-03 1.29544700e-01
        3 -1    0    0  501    0 +0.0000000000e+00 +0.0000000000e+00 +1.1392695251e+01 1.1392695251e+01 0.0000000000e+00 0.0000e+00 -1.0000e+00
       -3 -1    0    0    0  501 -0.0000000000e+00 -0.0000000000e+00 -1.9031930068e+02 1.9031930068e+02 0.0000000000e+00 0.0000e+00 1.0000e+00
       23  2    1    2    0    0 +0.0000000000e+00 +0.0000000000e+00 -1.7892660543e+02 2.0171199593e+02 9.3128938423e+01 0.0000e+00 0.0000e+00
      -13  1    3    3    0    0 -3.1415902498e+01 -3.0670053667e+01 -1.2306256830e+02 1.3065988994e+02 0.0000000000e+00 0.0000e+00 1.0000e+00
       13  1    3    3    0    0 +3.1415902498e+01 +3.0670053667e+01 -5.5864037129e+01 7.1052105993e+01 0.0000000000e+00 0.0000e+00 -1.0000e+00
<mgrwt>
<rscale>  0 0.93128938E+02</rscale>
<asrwt>0</asrwt>
<pdfrwt beam="1">  1        3 0.17527223E-02 0.93128938E+02</pdfrwt>
<pdfrwt beam="2">  1       -3 0.29279894E-01 0.93128938E+02</pdfrwt>
<totfact> 0.26826882E+04</totfact>
</mgrwt>
</event>
<event>
 5      1 +1.6944000e+03 9.02377400e+01 7.81860800e-03 1.30227700e-01
        2 -1    0    0  501    0 +0.0000000000e+00 +0.0000000000e+00 +1.1788141390e+02 1.1788141390e+02 0.0000000000e+00 0.0000e+00 -1.0000e+00
       -2 -1    0    0    0  501 -0.0000000000e+00 -0.0000000000e+00 -1.7269155297e+01 1.7269155297e+01 0.0000000000e+00 0.0000e+00 1.0000e+00
       23  2    1    2    0    0 +0.0000000000e+00 +0.0000000000e+00 +1.0061225860e+02 1.3515056920e+02 9.0237740293e+01 0.0000e+00 0.0000e+00
      -11  1    3    3    0    0 -4.0515641078e+01 -1.7204413154e+01 +6.5148149457e+01 7.8624362520e+01 0.0000000000e+00 0.0000e+00 -1.0000e+00
       11  1    3    3    0    0 +4.0515641078e+01 +1.7204413154e+01 +3.5464109145e+01 5.6526206677e+01 0.0000000000e+00 0.0000e+00 1.0000e+00
<mgrwt>
<rscale>  0 0.90237740E+02</rscale>
<asrwt>0</asrwt>
<pdfrwt beam="1">  1        2 0.18135602E-01 0.90237740E+02</pdfrwt>
<pdfrwt beam="2">  1       -2 0.26567932E-02 0.90237740E+02</pdfrwt>
<totfact> 0.13283175E+05</totfact>
</mgrwt>
</event>
<event>
 5      1 +1.6944000e+03 9.03449900e+01 7.81860800e-03 1.30201800e-01
        1 -1    0    0  501    0 +0.0000000000e+00 +0.0000000000e+00 +1.0692464748e+02 1.0692464748e+02 0.0000000000e+00 0.0000e+00 -1.0000e+00
       -1 -1    0    0    0  501 -0.0000000000e+00 -0.0000000000e+00 -1.9084040004e+01 1.9084040004e+01 0.0000000000e+00 0.0000e+00 1.0000e+00
       23  2    1    2    0    0 +0.0000000000e+00 +0.0000000000e+00 +8.7840607478e+01 1.2600868749e+02 9.0344988792e+01 0.0000e+00 0.0000e+00
      -11  1    3    3    0    0 +4.0501001246e+01 -7.1432580572e+00 +6.9983740348e+01 8.1173155357e+01 0.0000000000e+00 0.0000e+00 -1.0000e+00
       11  1    3    3    0    0 -4.0501001246e+01 +7.1432580572e+00 +1.7856867130e+01 4.4835532129e+01 0.0000000000e+00 0.0000e+00 1.0000e+00
<mgrwt>
<rscale>  0 0.90344989E+02</rscale>
<asrwt>0</asrwt>
<pdfrwt beam="1">  1        1 0.16449945E-01 0.90344989E+02</pdfrwt>
<pdfrwt beam="2">  1       -1 0.29360062E-02 0.90344989E+02</pdfrwt>
<totfact> 0.10829472E+05</totfact>
</mgrwt>
</event>
<event>
 5      1 +1.6944000e+03 9.21701000e+01 7.81860800e-03 1.29768000e-01
       -2 -1    0    0    0  501 -0.0000000000e+00 +0.0000000000e+00 +1.2608671624e+01 1.2608671624e+01 0.0000000000e+00 0.0000e+00 1.0000e+00
        2 -1    0    0  501    0 +0.0000000000e+00 -0.0000000000e+00 -1.6844217366e+02 1.6844217366e+02 0.0000000000e+00 0.0000e+00 -1.0000e+00
       23  2    1    2    0    0 +0.0000000000e+00 +0.0000000000e+00 -1.5583350204e+02 1.8105084529e+02 9.2170104814e+01 0.0000e+00 0.0000e+00
      -13  1    3    3    0    0 -2.4481180129e+01 -1.0276240359e+01 -3.9244059181e+00 2.6838969024e+01 0.0000000000e+00 0.0000e+00 1.0000e+00
       13  1    3    3    0    0 +2.4481180129e+01 +1.0276240359e+01 -1.5190909612e+02 1.5421187626e+02 0.0000000000e+00 0.0000e+00 -1.0000e+00
<mgrwt>
<rscale>  0 0.92170105E+02</rscale>
<asrwt>0</asrwt>
<pdfrwt beam="2">  1        2 0.25914180E-01 0.92170105E+02</pdfrwt>
<pdfrwt beam="1">  1       -2 0.19397957E-02 0.92170105E+02</pdfrwt>
<totfact> 0.14130138E+05</totfact>
</mgrwt>
</event>
<event>
 5      1 +1.6944000e+03 8.91681200e+01 7.81860800e-03 1.30487900e-01
        1 -1    0    0  501    0 +0.0000000000e+00 +0.0000000000e+00 +1.5717521617e+02 1.5717521617e+02 0.0000000000e+00 0.0000e+00 -1.0000e+00
       -1 -1    0    0    0  501 -0.0000000000e+00 -0.0000000000e+00 -1.2646639145e+01 1.2646639145e+01 0.0000000000e+00 0.0000e+00 1.0000e+00
       23  2    1    2    0    0 +0.0000000000e+00 +0.0000000000e+00 +1.4452857703e+02 1.6982185532e+02 8.9168116306e+01 0.0000e+00 0.0000e+00
      -13  1    3    3    0    0 +1.9594265223e+01 -1.7157805181e+01 +3.3479383479e+00 2.6258983215e+01 0.0000000000e+00 0.0000e+00 1.0000e+00
       13  1    3    3    0    0 -1.9594265223e+01 +1.7157805181e+01 +1.4118063868e+02 1.4356287210e+02 0.0000000000e+00 0.0000e+00 -1.0000e+00
<mgrwt>
<rscale>  0 0.89168116E+02</rscale>
<asrwt>0</asrwt>
<pdfrwt beam="1">  1        1 0.24180801E-01 0.89168116E+02</pdfrwt>
<pdfrwt beam="2">  1       -1 0.19456369E-02 0.89168116E+02</pdfrwt>
<totfact> 0.12008837E+05</totfact>
</mgrwt>
</event>
<event>
 5      1 +1.6944000e+03 9.05909100e+01 7.81860800e-03 1.30142700e-01
       -1 -1    0    0    0  501 -0.0000000000e+00 +0.0000000000e+00 +9.7329670415e+01 9.7329670415e+01 0.0000000000e+00 0.0000e+00 1.0000e+00
        1 -1    0    0  501    0 +0.0000000000e+00 -0.0000000000e+00 -2.1079679621e+01 2.1079679621e+01 0.0000000000e+00 0.0000e+00 -1.0000e+00
       23  2    1    2    0    0 +0.0000000000e+00 +0.0000000000e+00 +7.6249990794e+01 1.1840935004e+02 9.0590910582e+01 0.0000e+00 0.0000e+00
      -13  1    3    3    0    0 -3.0413613834e+01 +2.8624779796e+01 +6.1038492421e+01 7.3959877513e+01 0.0000000000e+00 0.0000e+00 1.0000e+00
       13  1    3    3    0    0 +3.0413613834e+01 -2.8624779796e+01 +1.5211498373e+01 4.4449472523e+01 0.0000000000e+00 0.0000e+00 -1.0000e+00
<mgrwt>
<rscale>  0 0.90590911E+02</rscale>
<asrwt>0</asrwt>
<pdfrwt beam="2">  1        1 0.32430277E-02 0.90590911E+02</pdfrwt>
<pdfrwt beam="1">  1       -1 0.14973795E-01 0.90590911E+02</pdfrwt>
<totfact> 0.83145832E+04</totfact>
</mgrwt>
</event>
<event>
 4      1 +1.6944000e+03 4.60356300e+01 7.81860800e-03 1.46797800e-01
        4 -1    0    0  501    0 +0.0000000000e+00 +0.0000000000e+00 +3.9130450471e+00 3.9130450471e+00 0.0000000000e+00 0.0000e+00 1.0000e+00
       -4 -1    0    0    0  501 -0.0000000000e+00 -0.0000000000e+00 -1.3539837032e+02 1.3539837032e+02 0.0000000000e+00 0.0000e+00 -1.0000e+00
      -13  1    1    2    0    0 -1.9014665217e+01 +9.8544269416e+00 -4.0216339949e+01 4.5563375890e+01 0.0000000000e+00 0.0000e+00 1.0000e+00
       13  1    1    2    0    0 +1.9014665217e+01 -9.8544269416e+00 -9.1268985327e+01 9.3748039480e+01 0.0000000000e+00 0.0000e+00 -1.0000e+00
<mgrwt>
<rscale>  0 0.46035635E+02</rscale>
<asrwt>0</asrwt>
<pdfrwt beam="1">  1        4 0.60200703E-03 0.46035635E+02</pdfrwt>
<pdfrwt beam="2">  1       -4 0.20830515E-01 0.46035635E+02</pdfrwt>
<totfact> 0.13899083E+05</totfact>
</mgrwt>
</event>
<event>
 5      1 +1.6944000e+03 8.97629600e+01 7.81860800e-03 1.30342700e-01
       -2 -1    0    0    0  501 -0.0000000000e+00 +0.0000000000e+00 +2.6887669273e+01 2.6887669273e+01 0.0000000000e+00 0.0000e+00 1.0000e+00
        2 -1    0    0  501    0 +0.0000000000e+00 -0.0000000000e+00 -7.4917143226e+01 7.4917143226e+01 0.0000000000e+00 0.0000e+00 -1.0000e+00
       23  2    1    2    0    0 +0.0000000000e+00 +0.0000000000e+00 -4.8029473953e+01 1.0180481250e+02 8.9762962739e+01 0.0000e+00 0.0000e+00
      -13  1    3    3    0    0 -3.9695332799e+01 +1.3934142763e+01 -4.1747719041e+01 5.9268472443e+01 0.0000000000e+00 0.0000e+00 -1.0000e+00
       13  1    3    3    0    0 +3.9695332799e+01 -1.3934142763e+01 -6.2817549121e+00 4.2536340056e+01 0.0000000000e+00 0.0000e+00 1.0000e+00
<mgrwt>
<rscale>  0 0.89762963E+02</rscale>
<asrwt>0</asrwt>
<pdfrwt beam="2">  1        2 0.11525714E-01 0.89762963E+02</pdfrwt>
<pdfrwt beam="1">  1       -2 0.41365646E-02 0.89762963E+02</pdfrwt>
<totfact> 0.11774690E+05</totfact>
</mgrwt>
</event>
<event>
 4      1 +1.6944000e+03 2.32527300e+01 7.81860800e-03 1.68744600e-01
       -2 -1    0    0    0  501 -0.0000000000e+00 +0.0000000000e+00 +1.3273659225e+01 1.3273659225e+01 0.0000000000e+00 0.0000e+00 -1.0000e+00
        2 -1    0    0  501    0 +0.0000000000e+00 -0.0000000000e+00 -1.0183500395e+01 1.0183500395e+01 0.0000000000e+00 0.0000e+00 1.0000e+00
      -13  1    1    2    0    0 -1.0863010778e+01 -1.6716587733e+00 +5.3695671101e+00 1.2232403573e+01 0.0000000000e+00 0.0000e+00 -1.0000e+00
       13  1    1    2    0    0 +1.0863010778e+01 +1.6716587733e+00 -2.2794082805e+00 1.1224756047e+01 0.0000000000e+00 0.0000e+00 1.0000e+00
<mgrwt>
<rscale>  0 0.23252726E+02</rscale>
<asrwt>0</asrwt>
<pdfrwt beam="2">  1        2 0.15666924E-02 0.23252726E+02</pdfrwt>
<pdfrwt beam="1">  1       -2 0.20421014E-02 0.23252726E+02</pdfrwt>
<totfact> 0.27853236E+06</totfact>
</mgrwt>
</event>
<event>
 5      1 +1.6944000e+03 9.09375700e+01 7.81860800e-03 1.30059700e-01
       -2 -1    0    0    0  501 -0.0000000000e+00 +0.0000000000e+00 +1.9283366212e+01 1.9283366212e+01 0.0000000000e+00 0.0000e+00 1.0000e+00
        2 -1    0    0  501    0 +0.0000000000e+00 -0.0000000000e+00 -1.0721211109e+02 1.0721211109e+02 0.0000000000e+00 0.0000e+00 -1.0000e+00
       23  2    1    2    0    0 +0.0000000000e+00 +0.0000000000e+00 -8.7928744882e+01 1.2649547731e+02 9.0937569807e+01 0.0000e+00 0.0000e+00
      -11  1    3    3    0    0 +2.3474482777e+01 -1.0456242591e+01 +8.2130622444e+00 2.6978486655e+01 0.0000000000e+00 0.0000e+00 1.0000e+00
       11  1    3    3    0    0 -2.3474482777e+01 +1.0456242591e+01 -9.6141807126e+01 9.9516990651e+01 0.0000000000e+00 0.0000e+00 -1.0000e+00
<mgrwt>
<rscale>  0 0.90937570E+02</rscale>
<asrwt>0</asrwt>
<pdfrwt beam="2">  1        2 0.16494171E-01 0.90937570E+02</pdfrwt>
<pdfrwt beam="1">  1       -2 0.29666717E-02 0.90937570E+02</pdfrwt>
<totfact> 0.12623896E+05</totfact>
</mgrwt>
</event>
<event>
 5      1 +1.6944000e+03 9.12634300e+01 7.81860800e-03 1.29982100e-01
       -1 -1    0    0    0  501 -0.0000000000e+00 +0.0000000000e+00 +4.7950625737e+01 4.7950625737e+01 0.0000000000e+00 0.0000e+00 1.0000e+00
        1 -1    0    0  501    0 +0.0000000000e+00 -0.0000000000e+00 -4.3424947235e+01 4.3424947235e+01 0.0000000000e+00 0.0000e+00 -1.0000e+00
       23  2    1    2    0    0 +0.0000000000e+00 +0.0000000000e+00 +4.5256785016e+00 9.1375572972e+01 9.1263429533e+01 0.0000e+00 0.0000e+00
      -11  1    3    3    0    0 -4.3673055840e+01 -2.7096334703e+00 -1.0698162067e+01 4.5045849882e+01 0.0000000000e+00 0.0000e+00 1.0000e+00
       11  1    3    3    0    0 +4.3673055840e+01 +2.7096334703e+00 +1.5223840568e+01 4.6329723090e+01 0.0000000000e+00 0.0000e+00 -1.0000e+00
<mgrwt>
<rscale>  0 0.91263430E+02</rscale>
<asrwt>0</asrwt>
<pdfrwt beam="2">  1        1 0.66807611E-02 0.91263430E+02</pdfrwt>
<pdfrwt beam="1">  1       -1 0.73770194E-02 0.91263430E+02</pdfrwt>
<totfact> 0.91552777E+04</totfact>
</mgrwt>
</event>
<event>
 5      1 +1.6944000e+03 9.25780400e+01 7.81860800e-03 1.29672600e-01
       -1 -1    0    0    0  501 -0.0000000000e+00 +0.0000000000e+00 +1.5601529593e+02 1.5601529593e+02 0.0000000000e+00 0.0000e+00 1.0000e+00
        1 -1    0    0  501    0 +0.0000000000e+00 -0.0000000000e+00 -1.3733740504e+01 1.3733740504e+01 0.0000000000e+00 0.0000e+00 -1.0000e+00
       23  2    1    2    0    0 +0.0000000000e+00 +0.0000000000e+00 +1.4228155543e+02 1.6974903643e+02 9.2578044674e+01 0.0000e+00 0.0000e+00
      -13  1    3    3    0    0 -4.5712472629e+01 -1.1252671598e+00 +8.4334539288e+01 9.5933366963e+01 0.0000000000e+00 0.0000e+00 -1.0000e+00
       13  1    3    3    0    0 +4.5712472629e+01 +1.1252671598e+00 +5.7947016137e+01 7.3815669470e+01 0.0000000000e+00 0.0000e+00 1.0000e+00
<mgrwt>
<rscale>  0 0.92578045E+02</rscale>
<asrwt>0</asrwt>
<pdfrwt beam="2">  1        1 0.21128833E-02 0.92578045E+02</pdfrwt>
<pdfrwt beam="1">  1       -1 0.24002352E-01 0.92578045E+02</pdfrwt>
<totfact> 0.71213426E+04</totfact>
</mgrwt>
</event>
<event>
 5      1 +1.6944000e+03 8.79488900e+01 7.81860800e-03 1.30789600e-01
       -1 -1    0    0    0  501 -0.0000000000e+00 +0.0000000000e+00 +1.7082675877e+02 1.7082675877e+02 0.0000000000e+00 0.0000e+00 1.0000e+00
        1 -1    0    0  501    0 +0.0000000000e+00 -0.0000000000e+00 -1.1319959059e+01 1.1319959059e+01 0.0000000000e+00 0.0000e+00 -1.0000e+00
       23  2    1    2    0    0 +0.0000000000e+00 +0.0000000000e+00 +1.5950679971e+02 1.8214671783e+02 8.7948892330e+01 0.0000e+00 0.0000e+00
      -11  1    3    3    0    0 +2.9752399753e+01 -3.1793074007e+01 +9.2477661687e+01 1.0221605919e+02 0.0000000000e+00 0.0000e+00 1.0000e+00
       11  1    3    3    0    0 -2.9752399753e+01 +3.1793074007e+01 +6.7029138025e+01 7.9930658638e+01 0.0000000000e+00 0.0000e+00 -1.0000e+00
<mgrwt>
<rscale>  0 0.87948892E+02</rscale>
<asrwt>0</asrwt>
<pdfrwt beam="2">  1        1 0.17415323E-02 0.87948892E+02</pdfrwt>
<pdfrwt beam="1">  1       -1 0.26281038E-01 0.87948892E+02</pdfrwt>
<totfact> 0.79554365E+04</totfact>
</mgrwt>
</event>
<event>
 5      1 +1.6944000e+03 9.10439300e+01 7.81860800e-03 1.30034300e-01
        1 -1    0    0  501    0 +0.0000000000e+00 +0.0000000000e+00 +6.4187919648e+01 6.4187919648e+01 0.0000000000e+00 0.0000e+00 -1.0000e+00
       -1 -1    0    0    0  501 -0.0000000000e+00 -0.0000000000e+00 -3.2284099304e+01 3.2284099304e+01 0.0000000000e+00 0.0000e+00 1.0000e+00
       23  2    1    2    0    0 +0.0000000000e+00 +0.0000000000e+00 +3.1903820344e+01 9.6472018952e+01 9.1043927244e+01 0.0000e+00 0.0000e+00
      -13  1    3    3    0    0 -9.7662353346e-01 +4.4743140783e+01 +7.1279531888e+00 4.5317879003e+01 0.0000000000e+00 0.0000e+00 1.0000e+00
       13  1    3    3    0    0 +9.7662353346e-01 -4.4743140783e+01 +2.4775867156e+01 5.1154139949e+01 0.0000000000e+00 0.0000e+00 -1.0000e+00
<mgrwt>
<rscale>  0 0.91043927E+02</rscale>
<asrwt>0</asrwt>
<pdfrwt beam="1">  1        1 0.98750645E-02 0.91043927E+02</pdfrwt>
<pdfrwt beam="2">  1       -1 0.49667845E-02 0.91043927E+02</pdfrwt>
<totfact> 0.97758046E+04</totfact>
</mgrwt>
</event>
<event>
 5      1 +1.6944000e+03 9.13652900e+01 7.81860800e-03 1.29957900e-01
        2 -1    0    0  501    0 +0.0000000000e+00 +0.0000000000e+00 +9.0367045403e+01 9.0367045403e+01 0.0000000000e+00 0.0000e+00 -1.0000e+00
       -2 -1    0    0    0  501 -0.0000000000e+00 -0.0000000000e+00 -2.3093639915e+01 2.3093639915e+01 0.0000000000e+00 0.0000e+00 1.0000e+00
       23  2    1    2    0    0 +0.0000000000e+00 +0.0000000000e+00 +6.7273405488e+01 1.1346068532e+02 9.1365288961e+01 0.0000e+00 0.0000e+00
      -11  1    3    3    0    0 +2.8404370338e+01 +3.3668581860e+00 -1.0597062895e+01 3.0503142958e+01 0.0000000000e+00 0.0000e+00 1.0000e+00
       11  1    3    3    0    0 -2.8404370338e+01 -3.3668581860e+00 +7.7870468382e+01 8.2957542360e+01 0.0000000000e+00 0.0000e+00 -1.0000e+00
<mgrwt>
<rscale>  0 0.91365289E+02</rscale>
<asrwt>0</asrwt>
<pdfrwt beam="1">  1        2 0.13902622E-01 0.91365289E+02</pdfrwt>
<pdfrwt beam="2">  1       -2 0.35528677E-02 0.91365289E+02</pdfrwt>
<totfact> 0.11832353E+05</totfact>
</mgrwt>
</event>
<event>
 5      1 +1.6944000e+03 9.19376800e+01 7.81860800e-03 1.29822600e-01
        1 -1    0    0  501    0 +0.0000000000e+00 +0.0000000000e+00 +4.3502054293e+01 4.3502054293e+01 0.0000000000e+00 0.0000e+00 -1.0000e+00
       -1 -1    0    0    0  501 -0.0000000000e+00 -0.0000000000e+00 -4.8575506607e+01 4.8575506607e+01 0.0000000000e+00 0.0000e+00 1.0000e+00
       23  2    1    2    0    0 +0.0000000000e+00 +0.0000000000e+00 -5.0734523140e+00 9.2077560899e+01 9.1937681626e+01 0.0000e+00 0.0000e+00
      -13  1    3    3    0    0 +1.7037727556e+01 +3.2378089809e+01 +2.5335626184e+01 4.4503020281e+01 0.0000000000e+00 0.0000e+00 -1.0000e+00
       13  1    3    3    0    0 -1.7037727556e+01 -3.2378089809e+01 -3.0409078498e+01 4.7574540619e+01 0.0000000000e+00 0.0000e+00 1.0000e+00
<mgrwt>
<rscale>  0 0.91937682E+02</rscale>
<asrwt>0</asrwt>
<pdfrwt beam="1">  1        1 0.66926238E-02 0.91937682E+02</pdfrwt>
<pdfrwt beam="2">  1       -1 0.74731548E-02 0.91937682E+02</pdfrwt>
<totfact> 0.89697233E+04</totfact>
</mgrwt>
</event>
<event>
 4      1 +1.6944000e+03 1.43885900e+02 7.81860800e-03 1.20819400e-01
       -1 -1    0    0    0  501 -0.0000000000e+00 +0.0000000000e+00 +1.9232881341e+01 1.9232881341e+01 0.0000000000e+00 0.0000e+00 1.0000e+00
        1 -1    0    0  501    0 +0.0000000000e+00 -0.0000000000e+00 -2.6911147514e+02 2.6911147514e+02 0.0000000000e+00 0.0000e+00 -1.0000e+00
      -13  1    1    2    0    0 +3.0684216510e+01 +5.0666570204e+01 -4.3114926031e+01 7.3263355954e+01 0.0000000000e+00 0.0000e+00 1.0000e+00
       13  1    1    2    0    0 -3.0684216510e+01 -5.0666570204e+01 -2.0676366777e+02 2.1508100053e+02 0.0000000000e+00 0.0000e+00 -1.0000e+00
<mgrwt>
<rscale>  0 0.14388591E+03</rscale>
<asrwt>0</asrwt>
<pdfrwt beam="2">  1        1 0.41401763E-01 0.14388591E+03</pdfrwt>
<pdfrwt beam="1">  1       -1 0.29589050E-02 0.14388591E+03</pdfrwt>
<totfact> 0.35995672E+04</totfact>
</mgrwt>
</event>
<event>
 4      1 +1.6944000e+03 2.81427300e+01 7.81860800e-03 1.61957500e-01
        2 -1    0    0  501    0 +0.0000000000e+00 +0.0000000000e+00 +7.5774849703e+00 7.5774849703e+00 0.0000000000e+00 0.0000e+00 -1.0000e+00
       -2 -1    0    0    0  501 -0.0000000000e+00 -0.0000000000e+00 -2.6130471835e+01 2.6130471835e+01 0.0000000000e+00 0.0000e+00 1.0000e+00
      -11  1    1    2    0    0 +2.8861959197e+00 -1.3152129678e+01 -1.4170386525e+01 1.9547595663e+01 0.0000000000e+00 0.0000e+00 1.0000e+00
       11  1    1    2    0    0 -2.8861959197e+00 +1.3152129678e+01 -4.3826003403e+00 1.4160361143e+01 0.0000000000e+00 0.0000e+00 -1.0000e+00
<mgrwt>
<rscale>  0 0.28142726E+02</rscale>
<asrwt>0</asrwt>
<pdfrwt beam="1">  1        2 0.11657669E-02 0.28142726E+02</pdfrwt>
<pdfrwt beam="2">  1       -2 0.40200726E-02 0.28142726E+02</pdfrwt>
<totfact> 0.17087771E+06</totfact>
</mgrwt>
</event>
<event>
 4      1 +1.6944000e+03 3.43338700e+01 7.81860800e-03 1.55459700e-01
       -2 -1    0    0    0  501 -0.0000000000e+00 +0.0000000000e+00 +3.9120791463e+00 3.9120791463e+00 0.0000000000e+00 0.0000e+00 1.0000e+00
        2 -1    0    0  501    0 +0.0000000000e+00 -0.0000000000e+00 -7.5331700474e+01 7.5331700474e+01 0.0000000000e+00 0.0000e+00 -1.0000e+00
      -11  1    1    2    0    0 -1.1784418372e+01 -1.2166551177e+01 -2.9261302150e+01 3.3810076714e+01 0.0000000000e+00 0.0000e+00 1.0000e+00
       11  1    1    2    0    0 +1.1784418372e+01 +1.2166551177e+01 -4.2158319178e+01 4.5433702906e+01 0.0000000000e+00 0.0000e+00 -1.0000e+00
<mgrwt>
<rscale>  0 0.34333865E+02</rscale>
<asrwt>0</asrwt>
<pdfrwt beam="2">  1        2 0.11589492E-01 0.34333865E+02</pdfrwt>
<pdfrwt beam="1">  1       -2 0.60185834E-03 0.34333865E+02</pdfrwt>
<totfact> 0.14201021E+06</totfact>
</mgrwt>
</event>
<event>
 5      1 +1.6944000e+03 9.21517800e+01 7.81860800e-03 1.29772300e-01
        3 -1    0    0  501    0 +0.0000000000e+00 +0.0000000000e+00 +1.6872541692e+01 1.6872541692e+01 0.0000000000e+00 0.0000e+00 1.0000e+00
       -3 -1    0    0    0  501 -0.0000000000e+00 -0.0000000000e+00 -1.2582499998e+02 1.2582499998e+02 0.0000000000e+00 0.0000e+00 -1.0000e+00
       23  2    1    2    0    0 +0.0000000000e+00 +0.0000000000e+00 -1.0895245828e+02 1.4269754167e+02 9.2151778236e+01 0.0000e+00 0.0000e+00
      -13  1    3    3    0    0 +3.8013184891e+01 +8.8587995365e+00 -9.2391127980e+01 1.0029756270e+02 0.0000000000e+00 0.0000e+00 -1.0000e+00
       13  1    3    3    0    0 -3.8013184891e+01 -8.8587995365e+00 -1.6561330303e+01 4.2399978965e+01 0.0000000000e+00 0.0000e+00 1.0000e+00
<mgrwt>
<rscale>  0 0.92151778E+02</rscale>
<asrwt>0</asrwt>
<pdfrwt beam="1">  1        3 0.25957757E-02 0.92151778E+02</pdfrwt>
<pdfrwt beam="2">  1       -3 0.19357692E-01 0.92151778E+02</pdfrwt>
<totfact> 0.30856857E+04</totfact>
</mgrwt>
</event>
<event>
 5      1 +1.6944000e+03 9.08897100e+01 7.81860800e-03 1.30071100e-01
       -1 -1    0    0    0  501 -0.0000000000e+00 +0.0000000000e+00 +7.1074825445e+01 7.1074825445e+01 0.0000000000e+00 0.0000e+00 1.0000e+00
        1 -1    0    0  501    0 +0.0000000000e+00 -0.0000000000e+00 -2.9057192968e+01 2.9057192968e+01 0.0000000000e+00 0.0000e+00 -1.0000e+00
       23  2    1    2    0    0 +0.0000000000e+00 +0.0000000000e+00 +4.2017632477e+01 1.0013201841e+02 9.0889711588e+01 0.0000e+00 0.0000e+00
      -11  1    3    3    0    0 -2.2777992926e+01 -1.8275069281e+00 +6.4285043729e+01 6.8225681312e+01 0.0000000000e+00 0.0000e+00 1.0000e+00
       11  1    3    3    0    0 +2.2777992926e+01 +1.8275069281e+00 -2.2267411252e+01 3.1906337101e+01 0.0000000000e+00 0.0000e+00 -1.0000e+00
<mgrwt>
<rscale>  0 0.90889712E+02</rscale>
<asrwt>0</asrwt>
<pdfrwt beam="2">  1        1 0.44703374E-02 0.90889712E+02</pdfrwt>
<pdfrwt beam="1">  1       -1 0.10934588E-01 0.90889712E+02</pdfrwt>
<totfact> 0.87023050E+04</totfact>
</mgrwt>
</event>
<event>
 5      1 +1.6944000e+03 8.98800100e+01 7.81860800e-03 1.30314300e-01
        2 -1    0    0  501    0 +0.0000000000e+00 +0.0000000000e+00 +4.7303196333e+02 4.7303196333e+02 0.0000000000e+00 0.0000e+00 -1.0000e+00
       -2 -1    0    0    0  501 -0.0000000000e+00 -0.0000000000e+00 -4.2694870742e+00 4.2694870742e+00 0.0000000000e+00 0.0000e+00 1.0000e+00
       23  2    1    2    0    0 +0.0000000000e+00 +0.0000000000e+00 +4.6876247626e+02 4.7730145041e+02 8.9880005633e+01 0.0000e+00 0.0000e+00
      -11  1    3    3    0    0 -4.0323417420e+01 -1.9819346983e+01 +2.3918811848e+02 2.4337160995e+02 0.0000000000e+00 0.0000e+00 -1.0000e+00
       11  1    3    3    0    0 +4.0323417420e+01 +1.9819346983e+01 +2.2957435778e+02 2.3392984046e+02 0.0000000000e+00 0.0000e+00 1.0000e+00
<mgrwt>
<rscale>  0 0.89880006E+02</rscale>
<asrwt>0</asrwt>
<pdfrwt beam="1">  1        2 0.72774107E-01 0.89880006E+02</pdfrwt>
<pdfrwt beam="2">  1       -2 0.65684454E-03 0.89880006E+02</pdfrwt>
<totfact> 0.21976254E+05</totfact>
</mgrwt>
</event>
<event>
 4      1 +1.6944000e+03 2.21006200e+01 7.81860800e-03 1.70651800e-01
        2 -1    0    0  501    0 +0.0000000000e+00 +0.0000000000e+00 +3.8569673574e+00 3.8569673574e+00 0.0000000000e+00 0.0000e+00 1.0000e+00
       -2 -1    0    0    0  501 -0.0000000000e+00 -0.0000000000e+00 -3.1659413612e+01 3.1659413612e+01 0.0000000000e+00 0.0000e+00 -1.0000e+00
      -11  1    1    2    0    0 +8.3311666219e+00 -7.2352606144e+00 -1.4854656463e+01 1.8504544092e+01 0.0000000000e+00 0.0000e+00 -1.0000e+00
       11  1    1    2    0    0 -8.3311666219e+00 +7.2352606144e+00 -1.2947789792e+01 1.7011836877e+01 0.0000000000e+00 0.0000e+00 1.0000e+00
<mgrwt>
<rscale>  0 0.22100618E+02</rscale>
<asrwt>0</asrwt>
<pdfrwt beam="1">  1        2 0.59337960E-03 0.22100618E+02</pdfrwt>
<pdfrwt beam="2">  1       -2 0.48706789E-02 0.22100618E+02</pdfrwt>
<totfact> 0.28791603E+06</totfact>
</mgrwt>
</event>
<event>
 5      1 +1.6944000e+03 9.12284800e+01 7.81860800e-03 1.29990400e-01
       -1 -1    0    0    0  501 -0.0000000000e+00 +0.0000000000e+00 +8.1451087137e+01 8.1451087137e+01 0.0000000000e+00 0.0000e+00 1.0000e+00
        1 -1    0    0  501    0 +0.0000000000e+00 -0.0000000000e+00 -2.5544887665e+01 2.5544887665e+01 0.0000000000e+00 0.0000e+00 -1.0000e+00
       23  2    1    2    0    0 +0.0000000000e+00 +0.0000000000e+00 +5.5906199473e+01 1.0699597480e+02 9.1228479569e+01 0.0000e+00 0.0000e+00
      -13  1    3    3    0    0 +2.6633277389e+01 -1.0333247159e+01 +6.9659744023e+01 7.5290021906e+01 0.0000000000e+00 0.0000e+00 1.0000e+00
       13  1    3    3    0    0 -2.6633277389e+01 +1.0333247159e+01 -1.3753544550e+01 3.1705952896e+01 0.0000000000e+00 0.0000e+00 -1.0000e+00
<mgrwt>
<rscale>  0 0.91228480E+02</rscale>
<asrwt>0</asrwt>
<pdfrwt beam="2">  1        1 0.39299828E-02 0.91228480E+02</pdfrwt>
<pdfrwt beam="1">  1       -1 0.12530936E-01 0.91228480E+02</pdfrwt>
<totfact> 0.84270442E+04</totfact>
</mgrwt>
</event>
<event>
 5      1 +1.6944000e+03 9.23077500e+01 7.81860800e-03 1.29735700e-01
       -1 -1    0    0    0  501 -0.0000000000e+00 +0.0000000000e+00 +2.3356616388e+01 2.3356616388e+01 0.0000000000e+00 0.0000e+00 1.0000e+00
        1 -1    0    0  501    0 +0.0000000000e+00 -0.0000000000e+00 -9.1202426483e+01 9.1202426483e+01 0.0000000000e+00 0.0000e+00 -1.0000e+00
       23  2    1    2    0    0 +0.0000000000e+00 +0.0000000000e+00 -6.7845810095e+01 1.1455904287e+02 9.2307748083e+01 0.0000e+00 0.0000e+00
      -13  1    3    3    0    0 -1.9706418366e+01 +1.6439495668e+01 +1.3685450464e+01 2.9084213881e+01 0.0000000000e+00 0.0000e+00 1.0000e+00
       13  1    3    3    0    0 +1.9706418366e+01 -1.6439495668e+01 -8.1531260559e+01 8.5474828991e+01 0.0000000000e+00 0.0000e+00 -1.0000e+00
<mgrwt>
<rscale>  0 0.92307748E+02</rscale>
<asrwt>0</asrwt>
<pdfrwt beam="2">  1        1 0.14031143E-01 0.92307748E+02</pdfrwt>
<pdfrwt beam="1">  1       -1 0.35933256E-02 0.92307748E+02</pdfrwt>
<totfact> 0.99467073E+04</totfact>
</mgrwt>
</event>
<event>
 4      1 +1.6944000e+03 2.19292800e+01 7.81860800e-03 1.70947800e-01
       -1 -1    0    0    0  501 -0.0000000000e+00 +0.0000000000e+00 +6.7425787334e+01 6.7425787334e+01 0.0000000000e+00 0.0000e+00 -1.0000e+00
        1 -1    0    0  501    0 +0.0000000000e+00 -0.0000000000e+00 -1.7830464009e+00 1.7830464009e+00 0.0000000000e+00 0.0000e+00 1.0000e+00
      -11  1    1    2    0    0 -7.2404245155e+00 -7.6156078950e+00 +4.2702264613e+01 4.3976182575e+01 0.0000000000e+00 0.0000e+00 -1.0000e+00
       11  1    1    2    0    0 +7.2404245155e+00 +7.6156078950e+00 +2.2940476320e+01 2.5232651160e+01 0.0000000000e+00 0.0000e+00 1.0000e+00
<mgrwt>
<rscale>  0 0.21929278E+02</rscale>
<asrwt>0</asrwt>
<pdfrwt beam="2">  1        1 0.27431488E-03 0.21929278E+02</pdfrwt>
<pdfrwt beam="1">  1       -1 0.10373196E-01 0.21929278E+02</pdfrwt>
<totfact> 0.27535590E+06</totfact>
</mgrwt>
</event>
<event>
 4      1 +1.6944000e+03 2.12506500e+01 7.81860800e-03 1.72154300e-01
       -4 -1    0    0    0  501 -0.0000000000e+00 +0.0000000000e+00 +2.3494696777e+00 2.3494696777e+00 0.0000000000e+00 0.0000e+00 1.0000e+00
        4 -1    0    0  501    0 +0.0000000000e+00 -0.0000000000e+00 -4.8052368098e+01 4.8052368098e+01 0.0000000000e+00 0.0000e+00 -1.0000e+00
      -11  1    1    2    0    0 +3.3147867233e+00 -9.4678976217e+00 -1.4543897148e+01 1.7667875952e+01 0.0000000000e+00 0.0000e+00 1.0000e+00
       11  1    1    2    0    0 -3.3147867233e+00 +9.4678976217e+00 -3.1159001272e+01 3.2733961824e+01 0.0000000000e+00 0.0000e+00 -1.0000e+00
<mgrwt>
<rscale>  0 0.21250655E+02</rscale>
<asrwt>0</asrwt>
<pdfrwt beam="2">  1        4 0.73926716E-02 0.21250655E+02</pdfrwt>
<pdfrwt beam="1">  1       -4 0.36145689E-03 0.21250655E+02</pdfrwt>
<totfact> 0.10163257E+06</totfact>
</mgrwt>
</event>
<event>
 5      1 +1.6944000e+03 9.75213600e+01 7.81860800e-03 1.28559600e-01
       -2 -1    0    0    0  501 -0.0000000000e+00 +0.0000000000e+00 +2.5220472923e+01 2.5220472923e+01 0.0000000000e+00 0.0000e+00 1.0000e+00
        2 -1    0    0  501    0 +0.0000000000e+00 -0.0000000000e+00 -9.4272769532e+01 9.4272769532e+01 0.0000000000e+00 0.0000e+00 -1.0000e+00
       23  2    1    2    0    0 +0.0000000000e+00 +0.0000000000e+00 -6.9052296609e+01 1.1949324246e+02 9.7521358304e+01 0.0000e+00 0.0000e+00
      -11  1    3    3    0    0 +9.4843586952e+00 +2.7418409338e+01 +1.3493886795e+01 3.1996987535e+01 0.0000000000e+00 0.0000e+00 1.0000e+00
       11  1    3    3    0    0 -9.4843586952e+00 -2.7418409338e+01 -8.2546183404e+01 8.7496254920e+01 0.0000000000e+00 0.0000e+00 -1.0000e+00
<mgrwt>
<rscale>  0 0.97521358E+02</rscale>
<asrwt>0</asrwt>
<pdfrwt beam="2">  1        2 0.14503503E-01 0.97521358E+02</pdfrwt>
<pdfrwt beam="1">  1       -2 0.38800728E-02 0.97521358E+02</pdfrwt>
<totfact> 0.99984062E+04</totfact>
</mgrwt>
</event>
<event>
 4      1 +1.6944000e+03 8.96530600e+01 7.81860800e-03 1.30369400e-01
        2 -1    0    0  501    0 +0.0000000000e+00 +0.0000000000e+00 +8.3634946227e+01 8.3634946227e+01 0.0000000000e+00 0.0000e+00 -1.0000e+00
       -2 -1    0    0    0  501 -0.0000000000e+00 -0.0000000000e+00 -2.4026056481e+01 2.4026056481e+01 0.0000000000e+00 0.0000e+00 1.0000e+00
      -11  1    1    2    0    0 -1.6602453558e+01 -4.8163971691e-01 +7.9803383371e+01 8.1513516906e+01 0.0000000000e+00 0.0000e+00 -1.0000e+00
       11  1    1    2    0    0 +1.6602453558e+01 +4.8163971691e-01 -2.0194493625e+01 2.6147485801e+01 0.0000000000e+00 0.0000e+00 1.0000e+00
<mgrwt>
<rscale>  0 0.89653063E+02</rscale>
<asrwt>0</asrwt>
<pdfrwt beam="1">  1        2 0.12866915E-01 0.89653063E+02</pdfrwt>
<pdfrwt beam="2">  1       -2 0.36963164E-02 0.89653063E+02</pdfrwt>
<totfact> 0.12188891E+05</totfact>
</mgrwt>
</event>
<event>
 4      1 +1.6944000e+03 3.07796400e+01 7.81860800e-03 1.58962700e-01
       -4 -1    0    0    0  501 -0.0000000000e+00 +0.0000000000e+00 +7.4378576420e+00 7.4378576420e+00 0.0000000000e+00 0.0000e+00 1.0000e+00
        4 -1    0    0  501    0 +0.0000000000e+00 -0.0000000000e+00 -3.1843385518e+01 3.1843385518e+01 0.0000000000e+00 0.0000e+00 -1.0000e+00
      -11  1    1    2    0    0 +1.3759166767e+01 +6.7486578492e+00 -1.4001953548e+01 2.0758462276e+01 0.0000000000e+00 0.0000e+00 -1.0000e+00
       11  1    1    2    0    0 -1.3759166767e+01 -6.7486578492e+00 -1.0403574328e+01 1.8522780884e+01 0.0000000000e+00 0.0000e+00 1.0000e+00
<mgrwt>
<rscale>  0 0.30779641E+02</rscale>
<asrwt>0</asrwt>
<pdfrwt beam="2">  1        4 0.48989824E-02 0.30779641E+02</pdfrwt>
<pdfrwt beam="1">  1       -4 0.11442858E-02 0.30779641E+02</pdfrwt>
<totfact> 0.47419367E+05</totfact>
</mgrwt>
</event>
<event>
 4      1 +1.6944000e+03 6.53508800e+01 7.81860800e-03 1.37665600e-01
       -4 -1    0    0    0  501 -0.0000000000e+00 +0.0000000000e+00 +2.6035667833e+01 2.6035667833e+01 0.0000000000e+00 0.0000e+00 -1.0000e+00
        4 -1    0    0  501    0 +0.0000000000e+00 -0.0000000000e+00 -4.1008524777e+01 4.1008524777e+01 0.0000000000e+00 0.0000e+00 1.0000e+00
      -11  1    1    2    0    0 -2.9352646849e+01 +1.3710074278e+01 -3.1169243366e+00 3.2546262936e+01 0.0000000000e+00 0.0000e+00 -1.0000e+00
       11  1    1    2    0    0 +2.9352646849e+01 -1.3710074278e+01 -1.1855932608e+01 3.4497929674e+01 0.0000000000e+00 0.0000e+00 1.0000e+00
<mgrwt>
<rscale>  0 0.65350878E+02</rscale>
<asrwt>0</asrwt>
<pdfrwt beam="2">  1        4 0.63090038E-02 0.65350878E+02</pdfrwt>
<pdfrwt beam="1">  1       -4 0.40054874E-02 0.65350878E+02</pdfrwt>
<totfact> 0.69509921E+04</totfact>
</mgrwt>
</event>
<event>
 5      1 +1.6944000e+03 9.15210700e+01 7.81860800e-03 1.29920900e-01
        1 -1    0    0  501    0 +0.0000000000e+00 +0.0000000000e+00 +3.1483544387e+01 3.1483544387e+01 0.0000000000e+00 0.0000e+00 -1.0000e+00
       -1 -1    0    0    0  501 -0.0000000000e+00 -0.0000000000e+00 -6.6511785326e+01 6.6511785326e+01 0.0000000000e+00 0.0000e+00 1.0000e+00
       23  2    1    2    0    0 +0.0000000000e+00 +0.0000000000e+00 -3.5028240939e+01 9.7995329713e+01 9.1521073979e+01 0.0000e+00 0.0000e+00
      -11  1    3    3    0    0 +1.8248229301e+01 +2.0840608301e+01 +2.1486390276e+01 3.5057007774e+01 0.0000000000e+00 0.0000e+00 -1.0000e+00
       11  1    3    3    0    0 -1.8248229301e+01 -2.0840608301e+01 -5.6514631215e+01 6.2938321938e+01 0.0000000000e+00 0.0000e+00 1.0000e+00
<mgrwt>
<rscale>  0 0.91521074E+02</rscale>
<asrwt>0</asrwt>
<pdfrwt beam="1">  1        1 0.48436223E-02 0.91521074E+02</pdfrwt>
<pdfrwt beam="2">  1       -1 0.10232582E-01 0.91521074E+02</pdfrwt>
<totfact> 0.86418984E+04</totfact>
</mgrwt>
</event>
<event>
 4      1 +1.6944000e+03 2.99673400e+01 7.81860800e-03 1.59845000e-01
        4 -1    0    0  501    0 +0.0000000000e+00 +0.0000000000e+00 +4.0010861504e+00 4.0010861504e+00 0.0000000000e+00 0.0000e+00 1.0000e+00
       -4 -1    0    0    0  501 -0.0000000000e+00 -0.0000000000e+00 -5.6112338404e+01 5.6112338404e+01 0.0000000000e+00 0.0000e+00 -1.0000e+00
      -13  1    1    2    0    0 +1.2974369270e+01 -3.5272763908e+00 -3.9321465770e+01 4.1556631324e+01 0.0000000000e+00 0.0000e+00 -1.0000e+00
       13  1    1    2    0    0 -1.2974369270e+01 +3.5272763908e+00 -1.2789786484e+01 1.8556793230e+01 0.0000000000e+00 0.0000e+00 1.0000e+00
<mgrwt>
<rscale>  0 0.29967336E+02</rscale>
<asrwt>0</asrwt>
<pdfrwt beam="1">  1        4 0.61555173E-03 0.29967336E+02</pdfrwt>
<pdfrwt beam="2">  1       -4 0.86326672E-02 0.29967336E+02</pdfrwt>
<totfact> 0.46918395E+05</totfact>
</mgrwt>
</event>
<event>
 4      1 +1.6944000e+03 2.89284700e+01 7.81860800e-03 1.61024400e-01
        2 -1    0    0  501    0 +0.0000000000e+00 +0.0000000000e+00 +8.4367814764e+00 8.4367814764e+00 0.0000000000e+00 0.0000e+00 -1.0000e+00
       -2 -1    0    0    0  501 -0.0000000000e+00 -0.0000000000e+00 -2.4797861364e+01 2.4797861364e+01 0.0000000000e+00 0.0000e+00 1.0000e+00
      -11  1    1    2    0    0 -1.1174135843e+01 +6.5805856128e+00 -8.1990450481e-01 1.2993754740e+01 0.0000000000e+00 0.0000e+00 -1.0000e+00
       11  1    1    2    0    0 +1.1174135843e+01 -6.5805856128e+00 -1.5541175383e+01 2.0240888101e+01 0.0000000000e+00 0.0000e+00 1.0000e+00
<mgrwt>
<rscale>  0 0.28928473E+02</rscale>
<asrwt>0</asrwt>
<pdfrwt beam="1">  1        2 0.12979664E-02 0.28928473E+02</pdfrwt>
<pdfrwt beam="2">  1       -2 0.38150556E-02 0.28928473E+02</pdfrwt>
<totfact> 0.16142649E+06</totfact>
</mgrwt>
</event>
<event>
 5      1 +1.6944000e+03 5.58012500e+01 7.81860800e-03 1.41634700e-01
       -2 -1    0    0    0  501 -0.0000000000e+00 +0.0000000000e+00 +3.5442909502e+00 3.5442909502e+00 0.0000000000e+00 0.0000e+00 1.0000e+00
        2 -1    0    0  501    0 +0.0000000000e+00 -0.0000000000e+00 -2.1963342963e+02 2.1963342963e+02 0.0000000000e+00 0.0000e+00 -1.0000e+00
       23  2    1    2    0    0 +0.0000000000e+00 +0.0000000000e+00 -2.1608913868e+02 2.2317772059e+02 5.5801246474e+01 0.0000e+00 0.0000e+00
      -11  1    3    3    0    0 +2.0062510178e+01 -1.6338060511e+01 -6.6286866102e+01 7.1157467307e+01 0.0000000000e+00 0.0000e+00 -1.0000e+00
       11  1    3    3    0    0 -2.0062510178e+01 +1.6338060511e+01 -1.4980227258e+02 1.5202025328e+02 0.0000000000e+00 0.0000e+00 1.0000e+00
<mgrwt>
<rscale>  0 0.55801246E+02</rscale>
<asrwt>0</asrwt>
<pdfrwt beam="2">  1        2 0.33789764E-01 0.55801246E+02</pdfrwt>
<pdfrwt beam="1">  1       -2 0.54527544E-03 0.55801246E+02</pdfrwt>
<totfact> 0.57622921E+05</totfact>
</mgrwt>
</event>
<event>
 5      1 +1.6944000e+03 9.17107100e+01 7.81860800e-03 1.29876100e-01
        4 -1    0    0  501    0 +0.0000000000e+00 +0.0000000000e+00 +4.9723091086e+01 4.9723091086e+01 0.0000000000e+00 0.0000e+00 -1.0000e+00
       -4 -1    0    0    0  501 -0.0000000000e+00 -0.0000000000e+00 -4.2288477045e+01 4.2288477045e+01 0.0000000000e+00 0.0000e+00 1.0000e+00
       23  2    1    2    0    0 +0.0000000000e+00 +0.0000000000e+00 +7.4346140406e+00 9.2011568130e+01 9.1710714662e+01 0.0000e+00 0.0000e+00
      -11  1    3    3    0    0 +1.5866264977e+01 +1.0733908002e+01 -3.8081801926e+01 4.2628380022e+01 0.0000000000e+00 0.0000e+00 1.0000e+00
       11  1    3    3    0    0 -1.5866264977e+01 -1.0733908002e+01 +4.5516415967e+01 4.9383188109e+01 0.0000000000e+00 0.0000e+00 -1.0000e+00
<mgrwt>
<rscale>  0 0.91710715E+02</rscale>
<asrwt>0</asrwt>
<pdfrwt beam="1">  1        4 0.76497064E-02 0.91710715E+02</pdfrwt>
<pdfrwt beam="2">  1       -4 0.65059195E-02 0.91710715E+02</pdfrwt>
<totfact> 0.26537705E+04</totfact>
</mgrwt>
</event>
<event>
 4      1 +1.6944000e+03 3.38677300e+01 7.81860800e-03 1.55889200e-01
       -2 -1    0    0    0  501 -0.0000000000e+00 +0.0000000000e+00 +1.6941471316e+01 1.6941471316e+01 0.0000000000e+00 0.0000e+00 1.0000e+00
        2 -1    0    0  501    0 +0.0000000000e+00 -0.0000000000e+00 -1.6926259461e+01 1.6926259461e+01 0.0000000000e+00 0.0000e+00 -1.0000e+00
      -11  1    1    2    0    0 -1.3723162546e+01 -8.4269028731e+00 -5.2286009415e+00 1.6931513521e+01 0.0000000000e+00 0.0000e+00 -1.0000e+00
       11  1    1    2    0    0 +1.3723162546e+01 +8.4269028731e+00 +5.2438127972e+00 1.6936217256e+01 0.0000000000e+00 0.0000e+00 1.0000e+00
<mgrwt>
<rscale>  0 0.33867727E+02</rscale>
<asrwt>0</asrwt>
<pdfrwt beam="2">  1        2 0.26040399E-02 0.33867727E+02</pdfrwt>
<pdfrwt beam="1">  1       -2 0.26063802E-02 0.33867727E+02</pdfrwt>
<totfact> 0.11756363E+06</totfact>
</mgrwt>
</event>
<event>
 5      1 +1.6944000e+03 9.05380700e+01 7.81860800e-03 1.30155400e-01
       -1 -1    0    0    0  501 -0.0000000000e+00 +0.0000000000e+00 +1.3575578121e+02 1.3575578121e+02 0.0000000000e+00 0.0000e+00 -1.0000e+00
        1 -1    0    0  501    0 +0.0000000000e+00 -0.0000000000e+00 -1.5095384185e+01 1.5095384185e+01 0.0000000000e+00 0.0000e+00 1.0000e+00
       23  2    1    2    0    0 +0.0000000000e+00 +0.0000000000e+00 +1.2066039703e+02 1.5085116540e+02 9.0538073158e+01 0.0000e+00 0.0000e+00
      -13  1    3    3    0    0 -3.4663562481e+01 -2.8728586402e+01 +5.2445985328e+01 6.9119285424e+01 0.0000000000e+00 0.0000e+00 1.0000e+00
       13  1    3    3    0    0 +3.4663562481e+01 +2.8728586402e+01 +6.8214411702e+01 8.1731879976e+01 0.0000000000e+00 0.0000e+00 -1.0000e+00
<mgrwt>
<rscale>  0 0.90538073E+02</rscale>
<asrwt>0</asrwt>
<pdfrwt beam="2">  1        1 0.23223669E-02 0.90538073E+02</pdfrwt>
<pdfrwt beam="1">  1       -1 0.20885504E-01 0.90538073E+02</pdfrwt>
<totfact> 0.77906854E+04</totfact>
</mgrwt>
</event>
<event>
 4      1 +1.6944000e+03 2.35441400e+01 7.81860800e-03 1.68283900e-01
        2 -1    0    0  501    0 +0.0000000000e+00 +0.0000000000e+00 +3.2522246643e+01 3.2522246643e+01 0.0000000000e+00 0.0000e+00 -1.0000e+00
       -2 -1    0    0    0  501 -0.0000000000e+00 -0.0000000000e+00 -4.2611345465e+00 4.2611345465e+00 0.0000000000e+00 0.0000e+00 1.0000e+00
      -11  1    1    2    0    0 -7.4031977692e+00 +9.1410686841e+00 +1.3405812012e+01 1.7834861076e+01 0.0000000000e+00 0.0000e+00 -1.0000e+00
       11  1    1    2    0    0 +7.4031977692e+00 -9.1410686841e+00 +1.4855300085e+01 1.8948520114e+01 0.0000000000e+00 0.0000e+00 1.0000e+00
<mgrwt>
<rscale>  0 0.23544143E+02</rscale>
<asrwt>0</asrwt>
<pdfrwt beam="1">  1        2 0.50034224E-02 0.23544143E+02</pdfrwt>
<pdfrwt beam="2">  1       -2 0.65555918E-03 0.23544143E+02</pdfrwt>
<totfact> 0.30204037E+06</totfact>
</mgrwt>
</event>
<event>
 5      1 +1.6944000e+03 9.32311000e+01 7.81860800e-03 1.29521100e-01
       -1 -1    0    0    0  501 -0.0000000000e+00 +0.0000000000e+00 +1.6293680564e+02 1.6293680564e+02 0.0000000000e+00 0.0000e+00 1.0000e+00
        1 -1    0    0  501    0 +0.0000000000e+00 -0.0000000000e+00 -1.3336518348e+01 1.3336518348e+01 0.0000000000e+00 0.0000e+00 -1.0000e+00
       23  2    1    2    0    0 +0.0000000000e+00 +0.0000000000e+00 +1.4960028729e+02 1.7627332399e+02 9.3231104209e+01 0.0000e+00 0.0000e+00
      -13  1    3    3    0    0 -1.4104350499e+01 -4.1391936306e+01 +4.4267336107e+01 6.2223967570e+01 0.0000000000e+00 0.0000e+00 1.0000e+00
       13  1    3    3    0    0 +1.4104350499e+01 +4.1391936306e+01 +1.0533295118e+02 1.1404935642e+02 0.0000000000e+00 0.0000e+00 -1.0000e+00
<mgrwt>
<rscale>  0 0.93231104E+02</rscale>
<asrwt>0</asrwt>
<pdfrwt beam="2">  1        1 0.20517722E-02 0.93231104E+02</pdfrwt>
<pdfrwt beam="1">  1       -1 0.25067199E-01 0.93231104E+02</pdfrwt>
<totfact> 0.69184750E+04</totfact>
</mgrwt>
</event>
<event>
 5      1 +1.6944000e+03 9.01471600e+01 7.81860800e-03 1.30249600e-01
        2 -1    0    0  501    0 +0.0000000000e+00 +0.0000000000e+00 +6.7657402074e+01 6.7657402074e+01 0.0000000000e+00 0.0000e+00 -1.0000e+00
       -2 -1    0    0    0  501 -0.0000000000e+00 -0.0000000000e+00 -3.0028162367e+01 3.0028162367e+01 0.0000000000e+00 0.0000e+00 1.0000e+00
       23  2    1    2    0    0 +0.0000000000e+00 +0.0000000000e+00 +3.7629239707e+01 9.7685564440e+01 9.0147156467e+01 0.0000e+00 0.0000e+00
      -13  1    3    3    0    0 +2.9634996101e+01 +2.6717905832e+01 -3.9039765722e+00 4.0091402059e+01 0.0000000000e+00 0.0000e+00 1.0000e+00
       13  1    3    3    0    0 -2.9634996101e+01 -2.6717905832e+01 +4.1533216279e+01 5.7594162382e+01 0.0000000000e+00 0.0000e+00 -1.0000e+00
<mgrwt>
<rscale>  0 0.90147156E+02</rscale>
<asrwt>0</asrwt>
<pdfrwt beam="1">  1        2 0.10408831E-01 0.90147156E+02</pdfrwt>
<pdfrwt beam="2">  1       -2 0.46197173E-02 0.90147156E+02</pdfrwt>
<totfact> 0.11312339E+05</totfact>
</mgrwt>
</event>
<event>
 4      1 +1.6944000e+03 4.64800600e+01 7.81860800e-03 1.46530800e-01
       -1 -1    0    0    0  501 -0.0000000000e+00 +0.0000000000e+00 +8.1767792589e+00 8.1767792589e+00 0.0000000000e+00 0.0000e+00 1.0000e+00
        1 -1    0    0  501    0 +0.0000000000e+00 -0.0000000000e+00 -6.6052787176e+01 6.6052787176e+01 0.0000000000e+00 0.0000e+00 -1.0000e+00
      -13  1    1    2    0    0 -1.6508081943e+01 +1.4967188474e+01 -3.9479005274e+01 4.5333490464e+01 0.0000000000e+00 0.0000e+00 -1.0000e+00
       13  1    1    2    0    0 +1.6508081943e+01 -1.4967188474e+01 -1.8397002643e+01 2.8896075971e+01 0.0000000000e+00 0.0000e+00 1.0000e+00
<mgrwt>
<rscale>  0 0.46480063E+02</rscale>
<asrwt>0</asrwt>
<pdfrwt beam="2">  1        1 0.10161968E-01 0.46480063E+02</pdfrwt>
<pdfrwt beam="1">  1       -1 0.12579660E-02 0.46480063E+02</pdfrwt>
<totfact> 0.57730627E+05</totfact>
</mgrwt>
</event>
</LesHouchesEvents>
